/*--------------------------------*- C++ -*----------------------------------*\
  =========                 |
  \\      /  F ield         | OpenFOAM: The Open Source CFD Toolbox
   \\    /   O peration     | Website:  https://openfoam.org
    \\  /    A nd           | Version:  7
     \\/     M anipulation  |
\*---------------------------------------------------------------------------*/
FoamFile
{
    version     2.0;
    format      ascii;
    class       volScalarField;
    location    "0.361";
    object      Mom_1;
}
// * * * * * * * * * * * * * * * * * * * * * * * * * * * * * * * * * * * * * //

dimensions      [0 0 0 0 0 0 0];

internalField   uniform 4e-19;

boundaryField
{
    axis
    {
        type            empty;
    }
    outlet
    {
        type            zeroGradient;
    }
    oxidant
    {
        type            fixedValue;
        value           uniform 4e-19;
    }
    fuel
    {
        type            fixedValue;
        value           uniform 4e-19;
    }
    N2
    {
        type            fixedValue;
        value           uniform 4e-19;
    }
    nozzleWall
    {
        type            zeroGradient;
    }
    sideWall
    {
        type            zeroGradient;
    }
    bottom
    {
        type            zeroGradient;
    }
    front
    {
        type            wedge;
    }
    back
    {
        type            wedge;
    }
}


// ************************************************************************* //
