/*--------------------------------*- C++ -*----------------------------------*\
  =========                 |
  \\      /  F ield         | OpenFOAM: The Open Source CFD Toolbox
   \\    /   O peration     | Website:  https://openfoam.org
    \\  /    A nd           | Version:  7
     \\/     M anipulation  |
\*---------------------------------------------------------------------------*/
FoamFile
{
    version     2.0;
    format      ascii;
    class       volScalarField;
    location    "0.361";
    object      p;
}
// * * * * * * * * * * * * * * * * * * * * * * * * * * * * * * * * * * * * * //

dimensions      [1 -1 -2 0 0 0 0];

internalField   nonuniform List<scalar> 
35870
(
101328.9323
101328.9047
101328.9017
101328.8777
101328.8722
101328.851
101328.8435
101328.8244
101328.8156
101328.7982
101328.7884
101328.7722
101328.7617
101328.7467
101328.7357
101328.7214
101328.7102
101328.6966
101328.6853
101328.6722
101328.6608
101328.6482
101328.6369
101328.6247
101328.6134
101328.6015
101328.5903
101328.5788
101328.5677
101328.5564
101328.5455
101328.5345
101328.5237
101328.5129
101328.5024
101328.4918
101328.4814
101328.471
101328.4608
101328.4506
101328.4406
101328.4306
101328.4208
101328.411
101328.4013
101328.3917
101328.3822
101328.3728
101328.3635
101328.3542
101328.3451
101328.336
101328.327
101328.3181
101328.3093
101328.3005
101328.2919
101328.2833
101328.2748
101328.2664
101328.258
101328.2498
101328.2416
101328.2334
101328.2254
101328.2174
101328.2096
101328.2017
101328.194
101328.1863
101328.1787
101328.1712
101328.1637
101328.1563
101328.149
101328.1417
101328.1345
101328.1274
101328.1203
101328.1133
101328.1064
101328.0995
101328.0927
101328.0859
101328.0792
101328.0725
101328.0658
101328.0592
101328.0527
101328.0461
101328.0396
101328.033
101328.0265
101328.0199
101328.0133
101328.0066
101327.9998
101327.9928
101327.9857
101327.9783
101327.9707
101327.9627
101327.9543
101327.9453
101327.9357
101327.9255
101327.9144
101327.9023
101327.8892
101327.8749
101327.8592
101327.8422
101327.8236
101327.8035
101327.7817
101327.7584
101327.7335
101327.7071
101327.6794
101327.6503
101328.9322
101328.9047
101328.9017
101328.8777
101328.8722
101328.851
101328.8435
101328.8244
101328.8156
101328.7982
101328.7884
101328.7722
101328.7617
101328.7467
101328.7357
101328.7215
101328.7102
101328.6966
101328.6853
101328.6722
101328.6608
101328.6482
101328.6369
101328.6247
101328.6134
101328.6015
101328.5903
101328.5788
101328.5677
101328.5564
101328.5455
101328.5345
101328.5237
101328.5129
101328.5024
101328.4918
101328.4814
101328.471
101328.4608
101328.4506
101328.4406
101328.4306
101328.4208
101328.411
101328.4013
101328.3917
101328.3822
101328.3728
101328.3635
101328.3542
101328.3451
101328.336
101328.327
101328.3181
101328.3093
101328.3005
101328.2919
101328.2833
101328.2748
101328.2664
101328.258
101328.2498
101328.2416
101328.2334
101328.2254
101328.2174
101328.2096
101328.2017
101328.194
101328.1863
101328.1787
101328.1712
101328.1637
101328.1563
101328.149
101328.1417
101328.1345
101328.1274
101328.1203
101328.1133
101328.1064
101328.0995
101328.0927
101328.0859
101328.0792
101328.0725
101328.0658
101328.0592
101328.0527
101328.0461
101328.0396
101328.0331
101328.0265
101328.0199
101328.0133
101328.0066
101327.9998
101327.9929
101327.9857
101327.9784
101327.9707
101327.9628
101327.9543
101327.9454
101327.9358
101327.9256
101327.9145
101327.9025
101327.8893
101327.8751
101327.8594
101327.8424
101327.8238
101327.8037
101327.7819
101327.7585
101327.7336
101327.7072
101327.6795
101327.6504
101328.9322
101328.9047
101328.9017
101328.8777
101328.8722
101328.851
101328.8435
101328.8244
101328.8156
101328.7982
101328.7884
101328.7722
101328.7617
101328.7467
101328.7357
101328.7214
101328.7102
101328.6966
101328.6853
101328.6722
101328.6608
101328.6482
101328.6369
101328.6247
101328.6134
101328.6015
101328.5903
101328.5788
101328.5677
101328.5564
101328.5455
101328.5345
101328.5237
101328.5129
101328.5024
101328.4918
101328.4814
101328.471
101328.4608
101328.4506
101328.4406
101328.4306
101328.4208
101328.411
101328.4013
101328.3917
101328.3822
101328.3728
101328.3635
101328.3542
101328.3451
101328.336
101328.327
101328.3181
101328.3093
101328.3005
101328.2919
101328.2833
101328.2748
101328.2664
101328.258
101328.2498
101328.2416
101328.2334
101328.2254
101328.2174
101328.2096
101328.2017
101328.194
101328.1863
101328.1787
101328.1712
101328.1637
101328.1563
101328.149
101328.1417
101328.1345
101328.1274
101328.1203
101328.1133
101328.1064
101328.0995
101328.0927
101328.0859
101328.0792
101328.0725
101328.0658
101328.0592
101328.0527
101328.0461
101328.0396
101328.0331
101328.0265
101328.02
101328.0134
101328.0067
101327.9999
101327.993
101327.9859
101327.9786
101327.971
101327.963
101327.9547
101327.9458
101327.9363
101327.9262
101327.9151
101327.9032
101327.8902
101327.876
101327.8604
101327.8435
101327.8249
101327.8049
101327.7831
101327.7598
101327.7348
101327.7083
101327.6806
101327.6514
101328.9322
101328.9047
101328.9017
101328.8777
101328.8722
101328.851
101328.8435
101328.8244
101328.8156
101328.7982
101328.7884
101328.7722
101328.7617
101328.7467
101328.7357
101328.7214
101328.7102
101328.6966
101328.6853
101328.6722
101328.6608
101328.6482
101328.6369
101328.6247
101328.6134
101328.6015
101328.5903
101328.5788
101328.5677
101328.5564
101328.5455
101328.5345
101328.5237
101328.5129
101328.5024
101328.4918
101328.4814
101328.471
101328.4608
101328.4506
101328.4406
101328.4306
101328.4208
101328.411
101328.4013
101328.3917
101328.3822
101328.3728
101328.3635
101328.3542
101328.3451
101328.336
101328.327
101328.3181
101328.3093
101328.3005
101328.2919
101328.2833
101328.2748
101328.2664
101328.258
101328.2498
101328.2416
101328.2334
101328.2254
101328.2174
101328.2096
101328.2017
101328.194
101328.1863
101328.1787
101328.1712
101328.1637
101328.1563
101328.149
101328.1417
101328.1345
101328.1274
101328.1203
101328.1133
101328.1064
101328.0995
101328.0927
101328.0859
101328.0792
101328.0725
101328.0659
101328.0593
101328.0527
101328.0462
101328.0396
101328.0331
101328.0266
101328.0201
101328.0135
101328.0068
101328
101327.9932
101327.9861
101327.9788
101327.9713
101327.9634
101327.9551
101327.9464
101327.937
101327.9269
101327.916
101327.9042
101327.8913
101327.8773
101327.8618
101327.845
101327.8266
101327.8066
101327.7849
101327.7615
101327.7365
101327.7099
101327.682
101327.6527
101328.9322
101328.9047
101328.9017
101328.8777
101328.8722
101328.851
101328.8435
101328.8244
101328.8156
101328.7982
101328.7884
101328.7722
101328.7617
101328.7467
101328.7357
101328.7214
101328.7102
101328.6966
101328.6853
101328.6722
101328.6608
101328.6482
101328.6369
101328.6247
101328.6134
101328.6015
101328.5903
101328.5788
101328.5677
101328.5564
101328.5455
101328.5345
101328.5237
101328.5129
101328.5024
101328.4918
101328.4814
101328.471
101328.4608
101328.4506
101328.4406
101328.4306
101328.4208
101328.411
101328.4013
101328.3917
101328.3822
101328.3728
101328.3635
101328.3542
101328.3451
101328.336
101328.327
101328.3181
101328.3093
101328.3005
101328.2919
101328.2833
101328.2748
101328.2664
101328.258
101328.2498
101328.2416
101328.2334
101328.2254
101328.2174
101328.2096
101328.2017
101328.194
101328.1863
101328.1787
101328.1712
101328.1637
101328.1563
101328.149
101328.1417
101328.1345
101328.1274
101328.1203
101328.1133
101328.1064
101328.0995
101328.0927
101328.0859
101328.0792
101328.0725
101328.0659
101328.0593
101328.0527
101328.0462
101328.0397
101328.0332
101328.0267
101328.0202
101328.0136
101328.007
101328.0002
101327.9934
101327.9864
101327.9792
101327.9717
101327.964
101327.9558
101327.9471
101327.9379
101327.928
101327.9173
101327.9057
101327.8929
101327.8791
101327.8638
101327.8472
101327.8289
101327.809
101327.7873
101327.764
101327.7389
101327.7122
101327.6841
101327.6546
101328.9322
101328.9047
101328.9017
101328.8777
101328.8722
101328.851
101328.8435
101328.8244
101328.8156
101328.7982
101328.7884
101328.7722
101328.7617
101328.7467
101328.7357
101328.7214
101328.7102
101328.6966
101328.6853
101328.6722
101328.6608
101328.6482
101328.6369
101328.6247
101328.6134
101328.6015
101328.5903
101328.5788
101328.5677
101328.5564
101328.5455
101328.5345
101328.5237
101328.5129
101328.5024
101328.4918
101328.4814
101328.471
101328.4608
101328.4506
101328.4406
101328.4306
101328.4208
101328.411
101328.4013
101328.3917
101328.3822
101328.3728
101328.3635
101328.3542
101328.3451
101328.336
101328.327
101328.3181
101328.3093
101328.3005
101328.2919
101328.2833
101328.2748
101328.2664
101328.258
101328.2498
101328.2416
101328.2334
101328.2254
101328.2174
101328.2096
101328.2017
101328.194
101328.1863
101328.1787
101328.1712
101328.1637
101328.1563
101328.149
101328.1417
101328.1345
101328.1274
101328.1203
101328.1133
101328.1064
101328.0995
101328.0927
101328.0859
101328.0792
101328.0725
101328.0659
101328.0593
101328.0528
101328.0463
101328.0398
101328.0333
101328.0268
101328.0203
101328.0137
101328.0072
101328.0005
101327.9937
101327.9868
101327.9796
101327.9723
101327.9646
101327.9565
101327.948
101327.939
101327.9293
101327.9187
101327.9074
101327.8949
101327.8813
101327.8662
101327.8498
101327.8317
101327.812
101327.7903
101327.767
101327.7418
101327.715
101327.6866
101327.6569
101328.9322
101328.9047
101328.9017
101328.8777
101328.8722
101328.851
101328.8435
101328.8244
101328.8156
101328.7982
101328.7884
101328.7722
101328.7617
101328.7466
101328.7357
101328.7214
101328.7102
101328.6966
101328.6853
101328.6722
101328.6608
101328.6482
101328.6369
101328.6247
101328.6134
101328.6015
101328.5903
101328.5788
101328.5677
101328.5564
101328.5455
101328.5345
101328.5237
101328.5129
101328.5024
101328.4918
101328.4814
101328.471
101328.4608
101328.4506
101328.4406
101328.4306
101328.4208
101328.411
101328.4013
101328.3917
101328.3822
101328.3728
101328.3635
101328.3542
101328.3451
101328.336
101328.327
101328.3181
101328.3093
101328.3005
101328.2919
101328.2833
101328.2748
101328.2664
101328.258
101328.2498
101328.2416
101328.2334
101328.2254
101328.2174
101328.2096
101328.2017
101328.194
101328.1863
101328.1787
101328.1712
101328.1637
101328.1563
101328.149
101328.1417
101328.1345
101328.1274
101328.1203
101328.1133
101328.1064
101328.0995
101328.0927
101328.0859
101328.0792
101328.0725
101328.0659
101328.0594
101328.0528
101328.0463
101328.0398
101328.0334
101328.0269
101328.0204
101328.0139
101328.0074
101328.0007
101327.994
101327.9872
101327.9801
101327.9729
101327.9654
101327.9574
101327.9491
101327.9403
101327.9308
101327.9205
101327.9094
101327.8972
101327.8839
101327.8692
101327.853
101327.8351
101327.8156
101327.794
101327.7707
101327.7454
101327.7184
101327.6897
101327.6597
101328.9321
101328.9047
101328.9017
101328.8777
101328.8722
101328.851
101328.8435
101328.8244
101328.8156
101328.7982
101328.7884
101328.7722
101328.7617
101328.7466
101328.7357
101328.7214
101328.7102
101328.6966
101328.6853
101328.6722
101328.6608
101328.6482
101328.6369
101328.6247
101328.6134
101328.6015
101328.5903
101328.5788
101328.5677
101328.5564
101328.5455
101328.5345
101328.5237
101328.5129
101328.5024
101328.4918
101328.4814
101328.471
101328.4608
101328.4506
101328.4406
101328.4306
101328.4208
101328.411
101328.4013
101328.3917
101328.3822
101328.3728
101328.3635
101328.3542
101328.3451
101328.336
101328.327
101328.3181
101328.3093
101328.3005
101328.2919
101328.2833
101328.2748
101328.2664
101328.258
101328.2498
101328.2416
101328.2334
101328.2254
101328.2174
101328.2096
101328.2017
101328.194
101328.1863
101328.1787
101328.1712
101328.1637
101328.1563
101328.149
101328.1417
101328.1345
101328.1274
101328.1203
101328.1133
101328.1064
101328.0995
101328.0927
101328.0859
101328.0792
101328.0726
101328.066
101328.0594
101328.0529
101328.0464
101328.0399
101328.0335
101328.027
101328.0206
101328.0141
101328.0076
101328.001
101327.9944
101327.9876
101327.9807
101327.9736
101327.9662
101327.9584
101327.9503
101327.9417
101327.9325
101327.9225
101327.9117
101327.8999
101327.8869
101327.8725
101327.8567
101327.8391
101327.8198
101327.7983
101327.7751
101327.7496
101327.7225
101327.6934
101327.6629
101328.9321
101328.9047
101328.9017
101328.8777
101328.8722
101328.851
101328.8436
101328.8244
101328.8156
101328.7982
101328.7884
101328.7722
101328.7617
101328.7466
101328.7357
101328.7214
101328.7102
101328.6966
101328.6853
101328.6722
101328.6608
101328.6482
101328.6369
101328.6247
101328.6134
101328.6015
101328.5903
101328.5788
101328.5677
101328.5564
101328.5455
101328.5345
101328.5237
101328.5129
101328.5024
101328.4918
101328.4814
101328.471
101328.4608
101328.4506
101328.4406
101328.4306
101328.4208
101328.411
101328.4013
101328.3917
101328.3822
101328.3728
101328.3635
101328.3542
101328.3451
101328.336
101328.327
101328.3181
101328.3093
101328.3005
101328.2919
101328.2833
101328.2748
101328.2664
101328.258
101328.2498
101328.2416
101328.2334
101328.2254
101328.2174
101328.2096
101328.2017
101328.194
101328.1863
101328.1787
101328.1712
101328.1637
101328.1563
101328.149
101328.1417
101328.1345
101328.1274
101328.1204
101328.1134
101328.1064
101328.0995
101328.0927
101328.086
101328.0792
101328.0726
101328.066
101328.0594
101328.0529
101328.0464
101328.04
101328.0336
101328.0271
101328.0207
101328.0143
101328.0079
101328.0014
101327.9948
101327.9881
101327.9813
101327.9743
101327.9671
101327.9595
101327.9516
101327.9433
101327.9344
101327.9247
101327.9143
101327.9028
101327.8903
101327.8763
101327.8609
101327.8436
101327.8246
101327.8033
101327.7802
101327.7545
101327.7271
101327.6975
101327.6666
101328.9321
101328.9047
101328.9017
101328.8777
101328.8722
101328.851
101328.8436
101328.8244
101328.8156
101328.7982
101328.7884
101328.7722
101328.7617
101328.7466
101328.7357
101328.7214
101328.7102
101328.6966
101328.6853
101328.6722
101328.6608
101328.6482
101328.6369
101328.6247
101328.6134
101328.6015
101328.5903
101328.5788
101328.5677
101328.5564
101328.5455
101328.5345
101328.5237
101328.5129
101328.5024
101328.4918
101328.4814
101328.471
101328.4608
101328.4506
101328.4406
101328.4306
101328.4208
101328.411
101328.4013
101328.3917
101328.3822
101328.3728
101328.3635
101328.3542
101328.3451
101328.336
101328.327
101328.3181
101328.3093
101328.3005
101328.2919
101328.2833
101328.2748
101328.2664
101328.258
101328.2498
101328.2416
101328.2334
101328.2254
101328.2174
101328.2096
101328.2017
101328.194
101328.1863
101328.1787
101328.1712
101328.1637
101328.1563
101328.149
101328.1417
101328.1345
101328.1274
101328.1204
101328.1134
101328.1064
101328.0995
101328.0927
101328.086
101328.0793
101328.0726
101328.066
101328.0595
101328.053
101328.0465
101328.0401
101328.0337
101328.0273
101328.0209
101328.0145
101328.0081
101328.0017
101327.9952
101327.9886
101327.9819
101327.9751
101327.968
101327.9607
101327.953
101327.9449
101327.9364
101327.9271
101327.9171
101327.9061
101327.894
101327.8805
101327.8656
101327.8488
101327.8301
101327.809
101327.786
101327.7601
101327.7325
101327.7023
101327.6708
101328.9321
101328.9047
101328.9017
101328.8777
101328.8722
101328.8509
101328.8436
101328.8244
101328.8156
101328.7982
101328.7884
101328.7722
101328.7618
101328.7466
101328.7357
101328.7214
101328.7102
101328.6966
101328.6853
101328.6722
101328.6608
101328.6482
101328.6369
101328.6247
101328.6134
101328.6015
101328.5903
101328.5788
101328.5677
101328.5564
101328.5455
101328.5345
101328.5237
101328.5129
101328.5024
101328.4918
101328.4814
101328.471
101328.4608
101328.4506
101328.4406
101328.4306
101328.4208
101328.411
101328.4013
101328.3917
101328.3822
101328.3728
101328.3635
101328.3542
101328.3451
101328.336
101328.327
101328.3181
101328.3093
101328.3005
101328.2919
101328.2833
101328.2748
101328.2664
101328.258
101328.2498
101328.2416
101328.2334
101328.2254
101328.2174
101328.2096
101328.2017
101328.194
101328.1863
101328.1787
101328.1712
101328.1637
101328.1563
101328.149
101328.1417
101328.1345
101328.1274
101328.1204
101328.1134
101328.1064
101328.0996
101328.0927
101328.086
101328.0793
101328.0726
101328.0661
101328.0595
101328.053
101328.0466
101328.0402
101328.0338
101328.0274
101328.0211
101328.0147
101328.0084
101328.002
101327.9956
101327.9891
101327.9826
101327.9759
101327.969
101327.9619
101327.9545
101327.9467
101327.9384
101327.9296
101327.92
101327.9095
101327.898
101327.8851
101327.8707
101327.8544
101327.8362
101327.8154
101327.7925
101327.7665
101327.7385
101327.7077
101327.6755
101328.9321
101328.9047
101328.9017
101328.8777
101328.8722
101328.8509
101328.8436
101328.8244
101328.8156
101328.7982
101328.7884
101328.7722
101328.7618
101328.7466
101328.7357
101328.7214
101328.7102
101328.6966
101328.6853
101328.6722
101328.6608
101328.6482
101328.6369
101328.6247
101328.6134
101328.6015
101328.5903
101328.5788
101328.5677
101328.5564
101328.5455
101328.5345
101328.5237
101328.5129
101328.5024
101328.4918
101328.4814
101328.471
101328.4608
101328.4506
101328.4406
101328.4306
101328.4208
101328.411
101328.4013
101328.3917
101328.3822
101328.3728
101328.3635
101328.3542
101328.3451
101328.336
101328.327
101328.3181
101328.3093
101328.3005
101328.2919
101328.2833
101328.2748
101328.2664
101328.258
101328.2498
101328.2416
101328.2334
101328.2254
101328.2174
101328.2096
101328.2017
101328.194
101328.1863
101328.1787
101328.1712
101328.1637
101328.1563
101328.149
101328.1417
101328.1345
101328.1274
101328.1204
101328.1134
101328.1064
101328.0996
101328.0927
101328.086
101328.0793
101328.0727
101328.0661
101328.0596
101328.0531
101328.0466
101328.0402
101328.0339
101328.0276
101328.0212
101328.015
101328.0087
101328.0024
101327.996
101327.9897
101327.9832
101327.9766
101327.97
101327.963
101327.9559
101327.9484
101327.9406
101327.9321
101327.9231
101327.9131
101327.9022
101327.8899
101327.8763
101327.8605
101327.843
101327.8225
101327.7999
101327.7737
101327.7454
101327.7137
101327.6807
101328.932
101328.9047
101328.9017
101328.8777
101328.8722
101328.8509
101328.8436
101328.8244
101328.8156
101328.7982
101328.7884
101328.7722
101328.7618
101328.7466
101328.7357
101328.7214
101328.7102
101328.6966
101328.6853
101328.6722
101328.6608
101328.6482
101328.6369
101328.6247
101328.6134
101328.6015
101328.5903
101328.5788
101328.5677
101328.5564
101328.5455
101328.5345
101328.5237
101328.5129
101328.5024
101328.4918
101328.4814
101328.471
101328.4608
101328.4506
101328.4406
101328.4306
101328.4208
101328.411
101328.4013
101328.3917
101328.3822
101328.3728
101328.3635
101328.3542
101328.3451
101328.336
101328.327
101328.3181
101328.3093
101328.3005
101328.2919
101328.2833
101328.2748
101328.2664
101328.258
101328.2498
101328.2416
101328.2334
101328.2254
101328.2174
101328.2096
101328.2017
101328.194
101328.1863
101328.1787
101328.1712
101328.1637
101328.1563
101328.149
101328.1417
101328.1346
101328.1274
101328.1204
101328.1134
101328.1064
101328.0996
101328.0928
101328.086
101328.0793
101328.0727
101328.0661
101328.0596
101328.0531
101328.0467
101328.0403
101328.034
101328.0277
101328.0214
101328.0152
101328.0089
101328.0027
101327.9964
101327.9902
101327.9838
101327.9774
101327.9709
101327.9642
101327.9574
101327.9502
101327.9427
101327.9347
101327.9262
101327.9168
101327.9066
101327.895
101327.8821
101327.8671
101327.8502
101327.8303
101327.8079
101327.7817
101327.753
101327.7203
101327.6863
101328.932
101328.9047
101328.9017
101328.8777
101328.8722
101328.8509
101328.8436
101328.8244
101328.8156
101328.7982
101328.7884
101328.7722
101328.7618
101328.7466
101328.7357
101328.7214
101328.7102
101328.6966
101328.6853
101328.6722
101328.6608
101328.6482
101328.6369
101328.6247
101328.6134
101328.6015
101328.5903
101328.5788
101328.5677
101328.5564
101328.5455
101328.5345
101328.5237
101328.5129
101328.5024
101328.4918
101328.4814
101328.471
101328.4608
101328.4506
101328.4406
101328.4306
101328.4208
101328.411
101328.4013
101328.3917
101328.3822
101328.3728
101328.3635
101328.3542
101328.3451
101328.336
101328.327
101328.3181
101328.3093
101328.3005
101328.2919
101328.2833
101328.2748
101328.2664
101328.258
101328.2498
101328.2416
101328.2334
101328.2254
101328.2174
101328.2096
101328.2017
101328.194
101328.1863
101328.1787
101328.1712
101328.1637
101328.1563
101328.149
101328.1417
101328.1346
101328.1274
101328.1204
101328.1134
101328.1064
101328.0996
101328.0928
101328.086
101328.0793
101328.0727
101328.0661
101328.0596
101328.0532
101328.0468
101328.0404
101328.0341
101328.0278
101328.0216
101328.0154
101328.0092
101328.003
101327.9968
101327.9906
101327.9844
101327.9782
101327.9718
101327.9653
101327.9588
101327.9519
101327.9448
101327.9372
101327.9293
101327.9205
101327.9111
101327.9003
101327.8883
101327.8742
101327.8582
101327.8389
101327.8171
101327.7907
101327.7617
101327.7278
101327.6925
101328.932
101328.9047
101328.9017
101328.8777
101328.8722
101328.8509
101328.8436
101328.8244
101328.8156
101328.7981
101328.7884
101328.7722
101328.7618
101328.7466
101328.7357
101328.7214
101328.7102
101328.6966
101328.6853
101328.6722
101328.6608
101328.6482
101328.6369
101328.6247
101328.6134
101328.6015
101328.5903
101328.5788
101328.5677
101328.5564
101328.5455
101328.5345
101328.5237
101328.5129
101328.5024
101328.4918
101328.4814
101328.471
101328.4608
101328.4506
101328.4406
101328.4306
101328.4208
101328.411
101328.4013
101328.3917
101328.3822
101328.3728
101328.3635
101328.3542
101328.3451
101328.336
101328.327
101328.3181
101328.3093
101328.3005
101328.2919
101328.2833
101328.2748
101328.2664
101328.258
101328.2498
101328.2416
101328.2334
101328.2254
101328.2174
101328.2096
101328.2017
101328.194
101328.1863
101328.1787
101328.1712
101328.1637
101328.1563
101328.149
101328.1417
101328.1346
101328.1274
101328.1204
101328.1134
101328.1065
101328.0996
101328.0928
101328.086
101328.0794
101328.0727
101328.0662
101328.0597
101328.0532
101328.0468
101328.0405
101328.0342
101328.0279
101328.0217
101328.0155
101328.0094
101328.0033
101327.9972
101327.9911
101327.985
101327.9788
101327.9727
101327.9664
101327.9601
101327.9535
101327.9468
101327.9397
101327.9323
101327.9242
101327.9154
101327.9055
101327.8945
101327.8814
101327.8664
101327.848
101327.8268
101327.8005
101327.7712
101327.7358
101327.699
101328.932
101328.9047
101328.9016
101328.8777
101328.8722
101328.8509
101328.8436
101328.8244
101328.8156
101328.7981
101328.7884
101328.7722
101328.7618
101328.7466
101328.7357
101328.7214
101328.7102
101328.6966
101328.6853
101328.6722
101328.6608
101328.6482
101328.6369
101328.6247
101328.6134
101328.6015
101328.5903
101328.5788
101328.5677
101328.5564
101328.5455
101328.5345
101328.5237
101328.5129
101328.5024
101328.4918
101328.4814
101328.471
101328.4608
101328.4506
101328.4406
101328.4306
101328.4208
101328.411
101328.4013
101328.3917
101328.3822
101328.3728
101328.3635
101328.3542
101328.3451
101328.336
101328.327
101328.3181
101328.3093
101328.3005
101328.2919
101328.2833
101328.2748
101328.2664
101328.258
101328.2498
101328.2416
101328.2334
101328.2254
101328.2174
101328.2096
101328.2017
101328.194
101328.1863
101328.1787
101328.1712
101328.1637
101328.1563
101328.149
101328.1417
101328.1346
101328.1274
101328.1204
101328.1134
101328.1065
101328.0996
101328.0928
101328.0861
101328.0794
101328.0728
101328.0662
101328.0597
101328.0532
101328.0469
101328.0405
101328.0342
101328.028
101328.0218
101328.0157
101328.0096
101328.0035
101327.9975
101327.9915
101327.9855
101327.9795
101327.9734
101327.9674
101327.9613
101327.955
101327.9487
101327.942
101327.9351
101327.9277
101327.9198
101327.9108
101327.9009
101327.889
101327.8754
101327.8581
101327.8379
101327.8118
101327.782
101327.7448
101327.706
101328.9319
101328.9047
101328.9016
101328.8777
101328.8722
101328.851
101328.8436
101328.8244
101328.8157
101328.7981
101328.7884
101328.7722
101328.7618
101328.7466
101328.7357
101328.7214
101328.7102
101328.6966
101328.6853
101328.6722
101328.6608
101328.6482
101328.6369
101328.6247
101328.6134
101328.6015
101328.5903
101328.5788
101328.5677
101328.5564
101328.5455
101328.5345
101328.5237
101328.5129
101328.5024
101328.4918
101328.4814
101328.471
101328.4608
101328.4506
101328.4406
101328.4306
101328.4208
101328.411
101328.4013
101328.3917
101328.3822
101328.3728
101328.3635
101328.3542
101328.3451
101328.336
101328.327
101328.3181
101328.3093
101328.3005
101328.2919
101328.2833
101328.2748
101328.2664
101328.258
101328.2498
101328.2416
101328.2334
101328.2254
101328.2174
101328.2096
101328.2017
101328.194
101328.1863
101328.1787
101328.1712
101328.1637
101328.1563
101328.149
101328.1417
101328.1346
101328.1274
101328.1204
101328.1134
101328.1065
101328.0996
101328.0928
101328.0861
101328.0794
101328.0728
101328.0662
101328.0597
101328.0533
101328.0469
101328.0406
101328.0343
101328.0281
101328.0219
101328.0158
101328.0098
101328.0037
101327.9978
101327.9918
101327.9859
101327.98
101327.9741
101327.9682
101327.9623
101327.9563
101327.9503
101327.9441
101327.9377
101327.9309
101327.9238
101327.9157
101327.907
101327.8963
101327.8841
101327.8682
101327.8492
101327.8236
101327.7934
101327.7542
101327.7128
101328.9319
101328.9047
101328.9016
101328.8777
101328.8722
101328.851
101328.8436
101328.8244
101328.8157
101328.7981
101328.7884
101328.7722
101328.7618
101328.7466
101328.7357
101328.7214
101328.7103
101328.6966
101328.6853
101328.6722
101328.6608
101328.6482
101328.6369
101328.6247
101328.6134
101328.6015
101328.5903
101328.5788
101328.5677
101328.5564
101328.5455
101328.5345
101328.5237
101328.5129
101328.5024
101328.4918
101328.4814
101328.471
101328.4608
101328.4506
101328.4406
101328.4306
101328.4208
101328.411
101328.4013
101328.3917
101328.3822
101328.3728
101328.3635
101328.3542
101328.3451
101328.336
101328.327
101328.3181
101328.3093
101328.3005
101328.2919
101328.2833
101328.2748
101328.2664
101328.258
101328.2498
101328.2416
101328.2334
101328.2254
101328.2174
101328.2096
101328.2017
101328.194
101328.1863
101328.1787
101328.1712
101328.1637
101328.1563
101328.149
101328.1417
101328.1346
101328.1274
101328.1204
101328.1134
101328.1065
101328.0996
101328.0928
101328.0861
101328.0794
101328.0728
101328.0662
101328.0597
101328.0533
101328.0469
101328.0406
101328.0344
101328.0282
101328.022
101328.0159
101328.0099
101328.0039
101327.998
101327.9921
101327.9863
101327.9805
101327.9747
101327.9689
101327.9632
101327.9575
101327.9518
101327.9459
101327.9401
101327.9339
101327.9276
101327.9206
101327.9131
101327.904
101327.8935
101327.8794
101327.862
101327.837
101327.8063
101327.7645
101327.7198
101328.9319
101328.9047
101328.9016
101328.8778
101328.8722
101328.851
101328.8436
101328.8244
101328.8157
101328.7981
101328.7884
101328.7722
101328.7618
101328.7466
101328.7357
101328.7214
101328.7103
101328.6966
101328.6853
101328.6722
101328.6608
101328.6482
101328.6369
101328.6247
101328.6134
101328.6015
101328.5903
101328.5788
101328.5677
101328.5564
101328.5455
101328.5345
101328.5237
101328.5129
101328.5024
101328.4918
101328.4814
101328.471
101328.4608
101328.4506
101328.4406
101328.4306
101328.4208
101328.411
101328.4013
101328.3917
101328.3822
101328.3728
101328.3635
101328.3542
101328.3451
101328.336
101328.327
101328.3181
101328.3093
101328.3005
101328.2919
101328.2833
101328.2748
101328.2664
101328.258
101328.2498
101328.2416
101328.2334
101328.2254
101328.2174
101328.2096
101328.2017
101328.194
101328.1863
101328.1787
101328.1712
101328.1637
101328.1563
101328.149
101328.1418
101328.1346
101328.1274
101328.1204
101328.1134
101328.1065
101328.0996
101328.0928
101328.0861
101328.0794
101328.0728
101328.0662
101328.0598
101328.0533
101328.047
101328.0407
101328.0344
101328.0282
101328.0221
101328.016
101328.01
101328.0041
101327.9982
101327.9923
101327.9866
101327.9808
101327.9752
101327.9695
101327.964
101327.9584
101327.9529
101327.9474
101327.9419
101327.9363
101327.9306
101327.9244
101327.9181
101327.9103
101327.9016
101327.8893
101327.8737
101327.8497
101327.8187
101327.7741
101327.7262
101328.9318
101328.9047
101328.9016
101328.8778
101328.8722
101328.851
101328.8436
101328.8244
101328.8157
101328.7981
101328.7884
101328.7722
101328.7618
101328.7466
101328.7357
101328.7214
101328.7103
101328.6966
101328.6853
101328.6722
101328.6608
101328.6482
101328.6369
101328.6247
101328.6134
101328.6015
101328.5903
101328.5788
101328.5677
101328.5564
101328.5455
101328.5345
101328.5237
101328.5129
101328.5024
101328.4918
101328.4814
101328.471
101328.4608
101328.4506
101328.4406
101328.4306
101328.4208
101328.411
101328.4013
101328.3917
101328.3822
101328.3728
101328.3635
101328.3542
101328.3451
101328.336
101328.327
101328.3181
101328.3093
101328.3005
101328.2919
101328.2833
101328.2748
101328.2664
101328.258
101328.2498
101328.2416
101328.2334
101328.2254
101328.2174
101328.2096
101328.2017
101328.194
101328.1863
101328.1787
101328.1712
101328.1637
101328.1563
101328.149
101328.1418
101328.1346
101328.1274
101328.1204
101328.1134
101328.1065
101328.0996
101328.0928
101328.0861
101328.0794
101328.0728
101328.0663
101328.0598
101328.0533
101328.047
101328.0407
101328.0345
101328.0283
101328.0222
101328.0161
101328.0101
101328.0042
101327.9983
101327.9925
101327.9868
101327.9811
101327.9755
101327.97
101327.9646
101327.9592
101327.9539
101327.9486
101327.9436
101327.9384
101327.9335
101327.9282
101327.9231
101327.9169
101327.9102
101327.9001
101327.8867
101327.8637
101327.8323
101327.7846
101327.7337
101328.9318
101328.9047
101328.9016
101328.8778
101328.8722
101328.851
101328.8436
101328.8244
101328.8157
101328.7981
101328.7884
101328.7722
101328.7618
101328.7466
101328.7357
101328.7214
101328.7103
101328.6966
101328.6853
101328.6722
101328.6608
101328.6482
101328.6369
101328.6247
101328.6134
101328.6015
101328.5903
101328.5788
101328.5677
101328.5564
101328.5455
101328.5345
101328.5237
101328.5129
101328.5024
101328.4918
101328.4814
101328.471
101328.4608
101328.4506
101328.4406
101328.4306
101328.4208
101328.411
101328.4013
101328.3917
101328.3822
101328.3728
101328.3635
101328.3542
101328.3451
101328.336
101328.327
101328.3181
101328.3093
101328.3005
101328.2919
101328.2833
101328.2748
101328.2664
101328.258
101328.2498
101328.2416