/*--------------------------------*- C++ -*----------------------------------*\
  =========                 |
  \\      /  F ield         | OpenFOAM: The Open Source CFD Toolbox
   \\    /   O peration     | Website:  https://openfoam.org
    \\  /    A nd           | Version:  7
     \\/     M anipulation  |
\*---------------------------------------------------------------------------*/
FoamFile
{
    version     2.0;
    format      ascii;
    class       surfaceScalarField;
    location    "0.361";
    object      phi;
}
// * * * * * * * * * * * * * * * * * * * * * * * * * * * * * * * * * * * * * //

dimensions      [1 0 -1 0 0 0 0];

internalField   nonuniform List<scalar> 
71017
(
1.644071314e-09
2.408386677e-13
1.643909958e-09
1.613559855e-13
1.643807516e-09
1.024416835e-13
1.643708084e-09
9.94320962e-14
1.643654005e-09
5.407851656e-14
1.643583455e-09
7.055002226e-14
1.643548225e-09
3.523008834e-14
1.643494371e-09
5.385420408e-14
1.643467973e-09
2.639827448e-14
1.643425286e-09
4.268681564e-14
1.643403622e-09
2.166366533e-14
1.643368851e-09
3.47711439e-14
1.643350024e-09
1.88273234e-14
1.643321052e-09
2.897218784e-14
1.643304115e-09
1.693765984e-14
1.643279505e-09
2.46095649e-14
1.64326396e-09
1.554521052e-14
1.643242709e-09
2.125224255e-14
1.64322827e-09
1.44387649e-14
1.643209661e-09
1.860943651e-14
1.643196158e-09
1.350343289e-14
1.643179643e-09
1.651443874e-14
1.643166957e-09
1.268720617e-14
1.643152135e-09
1.482216196e-14
1.643140183e-09
1.195197058e-14
1.643126748e-09
1.343441945e-14
1.64311547e-09
1.12787898e-14
1.643103188e-09
1.228160256e-14
1.643092531e-09
1.065792618e-14
1.643081219e-09
1.131225049e-14
1.643071135e-09
1.008423588e-14
1.64306065e-09
1.048456944e-14
1.643051096e-09
9.554513201e-15
1.643041319e-09
9.777021551e-15
1.643032263e-09
9.05615793e-15
1.643023103e-09
9.158957871e-15
1.643014504e-09
8.598967689e-15
1.643005887e-09
8.61600982e-15
1.642997713e-09
8.173913269e-15
1.642989579e-09
8.134314361e-15
1.6429818e-09
7.778855348e-15
1.642974098e-09
7.701849276e-15
1.642966687e-09
7.411152495e-15
1.642959376e-09
7.310964661e-15
1.642952308e-09
7.068254697e-15
1.642945349e-09
6.959503594e-15
1.642938605e-09
6.744521574e-15
1.642931971e-09
6.633244167e-15
1.642925517e-09
6.452901905e-15
1.642919187e-09
6.330196725e-15
1.642913017e-09
6.169850938e-15
1.642906965e-09
6.052530614e-15
1.642901057e-09
5.907635614e-15
1.642895263e-09
5.793682688e-15
1.642889601e-09
5.66202087e-15
1.64288405e-09
5.55153366e-15
1.642878622e-09
5.427834838e-15
1.642873302e-09
5.320167803e-15
1.642868096e-09
5.205126601e-15
1.642862997e-09
5.099748598e-15
1.642858006e-09
4.990898281e-15
1.642853123e-09
4.883731519e-15
1.642848343e-09
4.77829814e-15
1.642843671e-09
4.671416055e-15
1.642839113e-09
4.557100391e-15
1.642834666e-09
4.446993396e-15
1.642830342e-09
4.324540128e-15
1.642826145e-09
4.196781691e-15
1.642822092e-09
4.052265073e-15
1.642818198e-09
3.893749684e-15
1.642814488e-09
3.708684447e-15
1.64281099e-09
3.497799359e-15
1.642807749e-09
3.24201484e-15
1.642804811e-09
2.939445054e-15
1.642802254e-09
2.557423095e-15
1.642800151e-09
2.103334965e-15
1.642798635e-09
1.515996994e-15
1.64279784e-09
7.956289781e-16
1.642797961e-09
-1.202213912e-16
1.642799224e-09
-1.261937066e-15
1.642801945e-09
-2.720428161e-15
1.64280649e-09
-4.544080369e-15
1.642813357e-09
-6.866955439e-15
1.642823133e-09
-9.77632993e-15
1.642836596e-09
-1.346292477e-14
1.642854677e-09
-1.808119633e-14
1.642878573e-09
-2.38957876e-14
1.642909744e-09
-3.117024563e-14
1.642950006e-09
-4.026215433e-14
1.643001619e-09
-5.161247795e-14
1.643067302e-09
-6.568338192e-14
1.643150504e-09
-8.320217469e-14
1.643255241e-09
-1.047326585e-13
1.643386658e-09
-1.314131255e-13
1.643550601e-09
-1.639421003e-13
1.643754634e-09
-2.040341975e-13
1.644007027e-09
-2.523961083e-13
1.644318671e-09
-3.116450507e-13
1.644700958e-09
-3.822868415e-13
1.645169141e-09
-4.681817677e-13
1.645738348e-09
-5.692070128e-13
1.64642924e-09
-6.908933554e-13
1.647260946e-09
-8.317064648e-13
1.648260275e-09
-9.993294711e-13
1.649449807e-09
-1.189530608e-12
1.650862394e-09
-1.412587425e-12
1.652522097e-09
-1.659703815e-12
1.654466087e-09
-1.943991225e-12
1.656715858e-09
-2.249771498e-12
1.659308834e-09
-2.592976861e-12
1.662257599e-09
-2.948767395e-12
1.665592863e-09
-3.335265188e-12
1.669310742e-09
-3.717878232e-12
1.67342611e-09
-4.115366583e-12
1.677912457e-09
-4.486346565e-12
1.682759808e-09
-4.847351954e-12
1.687918646e-09
-5.158842296e-12
1.69334869e-09
-5.430050509e-12
1.698986471e-09
-5.637783452e-12
-5.775877933e-12
1.704762348e-09
4.917289163e-09
2.865225698e-13
4.917132707e-09
3.178119642e-13
4.917010628e-09
2.245203698e-13
4.916811133e-09
2.989274874e-13
4.916710996e-09
1.542157554e-13
4.916536458e-09
2.450883998e-13
4.916458661e-09
1.130277098e-13
4.916315164e-09
1.973517064e-13
4.916251558e-09
9.000427132e-14
4.916134062e-09
1.601814781e-13
4.916079048e-09
7.667812606e-14
4.915981688e-09
1.321321712e-13
4.915932143e-09
6.837290109e-14
4.915850173e-09
1.109430468e-13
4.915804453e-09
6.265744626e-14
4.915734341e-09
9.472242976e-14
4.915691592e-09
5.829601531e-14
4.915630751e-09
8.209402395e-14
4.915590483e-09
5.470737903e-14
4.915536998e-09
7.209509204e-14
4.915498942e-09
5.156038045e-14
4.915451336e-09
6.412069553e-14
4.915415287e-09
4.873792507e-14
4.915372452e-09
5.76577802e-14
4.915338272e-09
4.613217096e-14
4.915299362e-09
5.234426383e-14
4.915266942e-09
4.369876981e-14
4.915231304e-09
4.792054838e-14
4.915200544e-09
4.141976903e-14
4.915167664e-09
4.419354647e-14
4.91513846e-09
3.92882657e-14
4.915107936e-09
4.100915509e-14
4.915080199e-09
3.729171551e-14
4.915051692e-09
3.828351281e-14
4.915025333e-09
3.541481098e-14
4.914998596e-09
3.589407964e-14
4.914973522e-09
3.367170483e-14
4.91494834e-09
3.379658356e-14
4.914924467e-09
3.20457319e-14
4.91490067e-09
3.193181765e-14
4.914877922e-09
3.052696606e-14
4.914855367e-09
3.02556306e-14
4.91483367e-09
2.91087558e-14
4.914812242e-09
2.873953005e-14
4.914791531e-09
2.778110549e-14
4.914771118e-09
2.737269759e-14
4.914751334e-09
2.652861333e-14
4.914731872e-09
2.60931453e-14
4.914712929e-09
2.5394597e-14
4.914694335e-09
2.492473648e-14
4.914676215e-09
2.428993659e-14
4.914658432e-09
2.383557767e-14
4.914641071e-09
2.32682541e-14
4.91462404e-09
2.282483173e-14
4.914607395e-09
2.230783473e-14
4.914591071e-09
2.187556966e-14
4.914575106e-09
2.139138512e-14
4.914559455e-09
2.097014676e-14
4.914544139e-09
2.052083469e-14
4.914529136e-09
2.010426137e-14
4.914514447e-09
1.967980438e-14
4.914500071e-09
1.925876664e-14
4.91448601e-09
1.883647076e-14
4.914472253e-09
1.842662602e-14
4.914458831e-09
1.797880755e-14
4.914445738e-09
1.75397078e-14
4.914433006e-09
1.705675393e-14
4.914420651e-09
1.65516882e-14
4.91440872e-09
1.598002722e-14
4.914397256e-09
1.535542133e-14
4.914386339e-09
1.462371507e-14
4.914376047e-09
1.379145036e-14
4.914366519e-09
1.277370265e-14
4.914357884e-09
1.157609667e-14
4.914350381e-09
1.00612828e-14
4.914344236e-09
8.249373159e-15
4.914339822e-09
5.930198642e-15
4.914337545e-09
3.073504243e-15
4.914337994e-09
-5.674018891e-16
4.914341835e-09
-5.099627822e-15
4.914350008e-09
-1.089138422e-14
4.914363599e-09
-1.81342114e-14
4.91438409e-09
-2.735804031e-14
4.914413227e-09
-3.891375875e-14
4.914453319e-09
-5.355503771e-14
4.914507138e-09
-7.190003263e-14
4.914578237e-09
-9.499482543e-14
4.914670961e-09
-1.238939373e-13
4.91479071e-09
-1.600107892e-13
4.914944205e-09
-2.051082374e-13
4.915139531e-09
-2.610089771e-13
4.915386951e-09
-3.306193105e-13
4.91569843e-09
-4.16209454e-13
4.916089255e-09
-5.22234385e-13
4.916576837e-09
-6.515280086e-13
4.917183719e-09
-8.109220861e-13
4.917934544e-09
-1.003223969e-12
4.918861766e-09
-1.238866341e-12
4.919999386e-09
-1.519904924e-12
4.921392912e-09
-1.861707799e-12
4.923087573e-09
-2.263869879e-12
4.925145114e-09
-2.748436723e-12
4.927622854e-09
-3.309445891e-12
4.930601085e-09
-3.977558795e-12
4.934147688e-09
-4.736133006e-12
4.938361349e-09
-5.626251181e-12
4.943314729e-09
-6.613087106e-12
4.949119989e-09
-7.749256431e-12
4.955842482e-09
-8.972270291e-12
4.963595785e-09
-1.034628305e-11
4.97241898e-09
-1.177196426e-11
4.982406187e-09
-1.332246993e-11
4.993547027e-09
-1.485871665e-11
5.005888556e-09
-1.645689347e-11
5.019351701e-09
-1.794949434e-11
5.033908688e-09
-1.940434216e-11
5.049409782e-09
-2.065994073e-11
5.065735167e-09
-2.175543873e-11
5.0826915e-09
-2.259409053e-11
-2.31532597e-11
5.100068875e-09
8.142919616e-09
2.955551824e-13
8.142806066e-09
4.313613639e-13
8.142745641e-09
2.849455601e-13
8.142532903e-09
5.116653905e-13
8.142458707e-09
2.284119402e-13
8.142242317e-09
4.614799815e-13
8.142169843e-09
1.85501698e-13
8.14197802e-09
3.891746932e-13
8.141909118e-09
1.589063329e-13
8.141745159e-09
3.241407344e-13
8.141679057e-09
1.427803718e-13
8.141539442e-09
2.717488737e-13
8.141475466e-09
1.323494292e-13
8.141355687e-09
2.307226245e-13
8.141293595e-09
1.247507318e-13
8.141189712e-09
1.986064935e-13
8.141129522e-09
1.184886379e-13
8.141038404e-09
1.732128827e-13
8.140980193e-09
1.129195479e-13
8.140899382e-09
1.529073533e-13
8.140843276e-09
1.076671208e-13
8.140770819e-09
1.365797185e-13
8.140716865e-09
1.02693264e-13
8.140651255e-09
1.232679265e-13
8.140599497e-09
9.789069319e-14
8.140539572e-09
1.122691601e-13
8.14049002e-09
9.325118122e-14
8.140434869e-09
1.030734233e-13
8.140387499e-09
8.879225091e-14
8.140336398e-09
9.529609613e-14
8.140291148e-09
8.453862141e-14
8.140243526e-09
8.863254798e-14
8.140200333e-09
8.04844199e-14
8.140155706e-09
8.290965946e-14
8.140114479e-09
7.664106634e-14
8.140072497e-09
7.787344981e-14
8.14003314e-09
7.302673924e-14
8.139993493e-09
7.344198948e-14
8.139955908e-09
6.963015745e-14
8.139918351e-09
6.948872244e-14
8.139882443e-09
6.64344544e-14
8.139846771e-09
6.592656998e-14
8.139812445e-09
6.343536737e-14
8.139778493e-09
6.269393046e-14
8.13974566e-09
6.061588761e-14
8.139713272e-09
5.976133145e-14
8.139681849e-09
5.795035705e-14
8.139650914e-09
5.701808174e-14
8.139620799e-09
5.550792662e-14
8.139591207e-09
5.451727339e-14
8.139562359e-09
5.31385607e-14
8.139534025e-09
5.21679351e-14
8.139506353e-09
5.093992419e-14
8.139479192e-09
4.998615258e-14
8.139452636e-09
4.88634983e-14
8.13942658e-09
4.792895734e-14
8.139401089e-09
4.687988791e-14
8.13937609e-09
4.596796714e-14
8.139351618e-09
4.499372852e-14
8.139327638e-09
4.40849996e-14
8.139304154e-09
4.316344996e-14
8.139281162e-09
4.224882135e-14
8.139258677e-09
4.132027558e-14
8.139236666e-09
4.043625448e-14
8.139215187e-09
3.945867512e-14
8.139194234e-09
3.849241753e-14
8.139173858e-09
3.743267676e-14
8.139154083e-09
3.632374517e-14
8.139134991e-09
3.506688009e-14
8.139116646e-09
3.369677819e-14
8.139099184e-09
3.208552567e-14
8.139082727e-09
3.025240283e-14
8.139067504e-09
2.800100806e-14
8.139053726e-09
2.535513665e-14
8.139041778e-09
2.200946934e-14
8.139032032e-09
1.799297896e-14
8.139025091e-09
1.28709003e-14
8.139021613e-09
6.552568791e-15
8.139022558e-09
-1.509742214e-15
8.139029005e-09
-1.154319632e-14
8.139042485e-09
-2.436944409e-14
8.139064761e-09
-4.041023839e-14
8.139098241e-09
-6.083933592e-14
8.139145763e-09
-8.643675019e-14
8.139211079e-09
-1.188711702e-13
8.139298694e-09
-1.595154625e-13
8.139414387e-09
-2.106884384e-13
8.139565221e-09
-2.747280851e-13
8.139759988e-09
-3.547782762e-13
8.140009616e-09
-4.547359484e-13
8.140327294e-09
-5.78687237e-13
8.140729698e-09
-7.330228827e-13
8.141236378e-09
-9.228929646e-13
8.14187225e-09
-1.158110258e-12
8.142665775e-09
-1.445060526e-12
8.14365376e-09
-1.798912273e-12
8.144876604e-09
-2.226065843e-12
8.146387428e-09
-2.749686736e-12
8.148242175e-09
-3.374650935e-12
8.150515592e-09
-4.135127566e-12
8.153282453e-09
-5.030733628e-12
8.156644661e-09
-6.110644344e-12
8.160697588e-09
-7.362369138e-12
8.165574596e-09
-8.854564535e-12
8.171389633e-09
-1.055117346e-11
8.178308022e-09
-1.254464599e-11
8.186453257e-09
-1.475832454e-11
8.196015422e-09
-1.731142221e-11
8.207107744e-09
-2.006459647e-11
8.219925882e-09
-2.316442156e-11
8.234540692e-09
-2.638677133e-11
8.251118805e-09
-2.990058088e-11
8.269647802e-09
-3.338770904e-11
8.29021794e-09
-3.702703201e-11
8.312697552e-09
-4.042911429e-11
8.337051024e-09
-4.375781241e-11
8.363020383e-09
-4.66292901e-11
8.390411406e-09
-4.914649624e-11
8.418884879e-09
-5.106755485e-11
-5.235725105e-11
8.44808887e-09
1.1289498e-08
3.312875012e-13
1.128936958e-08
5.597731123e-13
1.128934255e-08
3.119751535e-13
1.12891197e-08
7.345196972e-13
1.128908374e-08
2.643731158e-13
1.128884988e-08
6.953420035e-13
1.1288805e-08
2.303837603e-13
1.128859137e-08
6.028049071e-13
1.128853891e-08
2.113688506e-13
1.128835184e-08
5.112096424e-13
1.128829339e-08
2.012310836e-13
1.128813096e-08
4.341768802e-13
1.128806821e-08
1.950959648e-13
1.128792663e-08
3.72309872e-13
1.128786122e-08
1.901571074e-13
1.128773679e-08
3.23043039e-13
1.128767013e-08
1.851528361e-13
1.128755974e-08
2.835965535e-13
1.128749289e-08
1.797700919e-13
1.128739403e-08
2.517743408e-13
1.128732784e-08
1.738540025e-13
1.128723842e-08
2.260018179e-13
1.128717346e-08
1.676563844e-13
1.128709186e-08
2.048654704e-13
1.128702855e-08
1.612040471e-13
1.128695351e-08
1.873129628e-13
1.128689213e-08
1.546309031e-13
1.128682263e-08
1.725706483e-13
1.128676336e-08
1.480661783e-13
1.128669861e-08
1.600497603e-13
1.128664152e-08
1.416266337e-13
1.128658088e-08
1.492803257e-13
1.128652601e-08
1.353495342e-13
1.128646892e-08
1.399981969e-13
1.128641625e-08
1.293094365e-13
1.128636233e-08
1.317905151e-13
1.128631181e-08
1.235462792e-13
1.128626071e-08
1.245430125e-13
1.128621226e-08
1.180733664e-13
1.12861637e-08
1.180512523e-13
1.128611726e-08
1.128764299e-13
1.1286071e-08
1.121813687e-13
1.128602648e-08
1.079642679e-13
1.128598234e-08
1.068295338e-13
1.128593963e-08
1.033291181e-13
1.128589746e-08
1.019327265e-13
1.12858565e-08
9.890982656e-14
1.12858161e-08
9.740477482e-14
1.128577678e-08
9.482219881e-14
1.128573811e-08
9.319299311e-14
1.128570036e-08
9.088154046e-14
1.128566327e-08
8.92611804e-14
1.128562702e-08
8.71899268e-14
1.128559141e-08
8.559180832e-14
1.128555658e-08
8.36913218e-14
1.128552238e-08
8.211891525e-14
1.128548892e-08
8.034448305e-14
1.128545608e-08
7.880542871e-14
1.128542392e-08
7.715367677e-14
1.128539239e-08
7.561213392e-14
1.128536151e-08
7.404720178e-14
1.128533126e-08
7.249232067e-14
1.128530168e-08
7.090716966e-14
1.12852727e-08
6.941174061e-14
1.128524442e-08
6.773607982e-14
1.128521684e-08
6.607807625e-14
1.128519001e-08
6.426000099e-14
1.128516397e-08
6.235639612e-14
1.128513884e-08
6.01951828e-14
1.128511469e-08
5.783960757e-14
1.128509172e-08
5.505902773e-14
1.128507008e-08
5.189066611e-14
1.12850501e-08
4.799119925e-14
1.128503204e-08
4.340826179e-14
1.128501644e-08
3.76107618e-14
1.128500379e-08
3.063920975e-14
1.12849949e-08
2.175791402e-14
1.128499065e-08
1.079383166e-14
1.128499236e-08
-3.207515663e-15
1.128500145e-08
-2.06340761e-14
1.128502e-08
-4.291928749e-14
1.128505037e-08
-7.079021401e-14
1.128509583e-08
-1.062920984e-13
1.128516017e-08
-1.507809868e-13
1.128524846e-08
-2.07162104e-13
1.128536676e-08
-2.778216395e-13
1.128552288e-08
-3.668051123e-13
1.128572631e-08
-4.78164936e-13
1.128598895e-08
-6.174200497e-13
1.128632551e-08
-7.912906213e-13
1.128675388e-08
-1.00705981e-12
1.12872965e-08
-1.275643598e-12
1.128797985e-08
-1.606249116e-12
1.128883776e-08
-2.016021284e-12
1.128990883e-08
-2.516138401e-12
1.129124295e-08
-3.133025178e-12
1.12928953e-08
-3.878413477e-12
1.129493817e-08
-4.792552682e-12
1.129744833e-08
-5.884819108e-12
1.130052806e-08
-7.214853528e-12
1.13042807e-08
-8.783375317e-12
1.130884667e-08
-1.067660747e-11
1.131435909e-08
-1.28747863e-11
1.132100348e-08
-1.549895737e-11
1.132894102e-08
-1.848872493e-11
1.133840464e-08
-2.200826601e-11
1.134957231e-08
-2.592599118e-11
1.136271638e-08
-3.045548494e-11
1.137800481e-08
-3.535302271e-11
1.139572472e-08
-4.088432654e-11
1.141598809e-08
-4.665014521e-11
1.143904901e-08
-5.29614967e-11
1.146490157e-08
-5.924026614e-11
1.149369789e-08
-6.582335315e-11
1.152525501e-08
-7.198623271e-11
1.155954693e-08
-7.8049729e-11
1.159619449e-08
-8.327685616e-11
1.163493886e-08
-8.78908621e-11
1.167526694e-08
-9.13956495e-11
-9.377278418e-11
1.171668247e-08
1.432549123e-08
4.006060544e-13
1.432532844e-08
7.225536556e-13
1.432529843e-08
3.419880873e-13
1.432504254e-08
9.90413923e-13
1.432502357e-08
2.833455362e-13
1.432476624e-08
9.526739813e-13
1.432474343e-08
2.53192457e-13
1.432451269e-08
8.335395993e-13
1.432447962e-08
2.444446304e-13
1.432427869e-08
7.12138956e-13
1.432423453e-08
2.453890448e-13
1.432405983e-08
6.088822041e-13
1.432400623e-08
2.486904054e-13
1.432385321e-08
5.253344724e-13
1.432379258e-08
2.507850796e-13
1.432365723e-08
4.583949533e-13
1.432359186e-08
2.505312286e-13
1.432347095e-08
4.044991181e-13
1.43234027e-08
2.480206252e-13
1.432329362e-08
3.608569215e-13
1.432322401e-08
2.434643856e-13
1.432312464e-08
3.253732483e-13
1.432305477e-08
2.375347779e-13
1.432296347e-08
2.961639303e-13
1.432289417e-08
2.305030957e-13
1.432280966e-08
2.718211658e-13
1.432274155e-08
2.227429705e-13
1.432266282e-08
2.513045335e-13
1.432259631e-08
2.145722412e-13
1.432252255e-08
2.338174101e-13
1.432245791e-08
2.062629952e-13
1.432238847e-08
2.18721323e-13
1.432232589e-08
1.979352047e-13
1.432226022e-08
2.056704481e-13
1.432219976e-08
1.897624813e-13
1.432213749e-08
1.940679965e-13
1.432207919e-08
1.818346908e-13
1.432201995e-08
1.837861987e-13
1.432196381e-08
1.742112508e-13
1.432190732e-08
1.745364743e-13
1.43218533e-08
1.668957844e-13
1.432179935e-08
1.661404586e-13
1.432174739e-08
1.599216469e-13
1.432169578e-08
1.584454514e-13
1.43216458e-08
1.533070614e-13
1.432159638e-08
1.513546283e-13
1.432154834e-08
1.469557259e-13
1.432150089e-08
1.448474128e-13
1.43214547e-08
1.41015169e-13
1.43214092e-08
1.386922375e-13
1.432136478e-08
1.353026531e-13
1.432132108e-08
1.329612421e-13
1.432127835e-08
1.299187004e-13
1.432123634e-08
1.275912945e-13
1.432119524e-08
1.247917144e-13
1.432115486e-08
1.224920073e-13
1.432111532e-08
1.198802358e-13
1.43210765e-08
1.176194705e-13
1.432103848e-08
1.151791277e-13
1.432100118e-08
1.129057255e-13
1.432096464e-08
1.105933797e-13
1.432092884e-08
1.082918625e-13
1.432089381e-08
1.059308228e-13
1.43208595e-08
1.037268261e-13
1.432082601e-08
1.012276943e-13
1.432079334e-08
9.874668411e-14
1.432076156e-08
9.603147097e-14
1.432073073e-08
9.318709567e-14
1.432070097e-08
8.994855369e-14
1.432067239e-08
8.641554893e-14
1.432064522e-08
8.223012466e-14
1.432061966e-08
7.7452821e-14
1.432059609e-08
7.156640698e-14
1.432057485e-08
6.464434473e-14
1.432055657e-08
5.587794173e-14
1.432054187e-08
4.533098936e-14
1.432053173e-08
3.189222892e-14
1.432052723e-08
1.529239804e-14
1.432052995e-08
-5.921837047e-15
1.432054164e-08
-3.232939056e-14
1.432056483e-08
-6.611303834e-14
1.43206024e-08
-1.083622459e-13
1.43206583e-08
-1.621957763e-13
1.432073718e-08
-2.296618111e-13
1.43208452e-08
-3.151872884e-13
1.432098975e-08
-4.223758513e-13
1.432118036e-08
-5.57409295e-13
1.432142859e-08
-7.26396629e-13
1.432174899e-08
-9.378247799e-13
1.432215949e-08
-1.201788885e-12
1.432268203e-08
-1.529610354e-12
1.432334402e-08
-1.937628208e-12
1.432417801e-08
-2.440241155e-12
1.432522541e-08
-3.063418275e-12
1.432653387e-08
-3.824590681e-12
1.43281647e-08
-4.763848779e-12
1.433018637e-08
-5.900079859e-12
1.433268819e-08
-7.294376963e-12
1.433576611e-08
-8.962742721e-12
1.433954739e-08
-1.09961307e-11
1.434416246e-08
-1.339843688e-11
1.434978774e-08
-1.630188123e-11
1.435659345e-08
-1.968050017e-11
1.436481575e-08
-2.3721254e-11
1.437466439e-08
-2.83373802e-11
1.438644094e-08
-3.378481109e-11
1.440038286e-08
-3.986791371e-11
1.441685072e-08
-4.692333274e-11
1.443607698e-08
-5.457927513e-11
1.445845367e-08
-6.326101339e-11
1.448414808e-08
-7.234455327e-11
1.451352375e-08
-8.23371707e-11
1.454659515e-08
-9.231165902e-11
1.458360471e-08
-1.028329014e-10
1.462432156e-08
-1.127030794e-10
1.466875706e-08
-1.224852387e-10
1.471639167e-08
-1.309114625e-10
1.476691873e-08
-1.384179234e-10
1.481960748e-08
-1.440843857e-10
-1.479793736e-10
1.487381406e-08
1.721930305e-08
5.14401546e-13
1.721910369e-08
9.21916065e-13
1.721905275e-08
3.92926436e-13
1.721875439e-08
1.288768259e-12
1.72187333e-08
3.044441531e-13
1.721844391e-08
1.242066014e-12
1.721842894e-08
2.681650096e-13
1.721817679e-08
1.08568412e-12
1.721815485e-08
2.663823157e-13
1.721793969e-08
9.273032881e-13
1.721790629e-08
2.787927079e-13
1.721772155e-08
7.936192385e-13
1.721767674e-08
2.935004372e-13
1.721751601e-08
6.860606879e-13
1.721746178e-08
3.050217818e-13
1.721732e-08
6.001744827e-13
1.721725866e-08
3.118797405e-13
1.721713199e-08
5.311602538e-13
1.721706575e-08
3.142602243e-13
1.721695122e-08
4.753858054e-13
1.72168819e-08
3.127869932e-13
1.721677723e-08
4.300488871e-13
1.721670627e-08
3.084940261e-13
1.721660973e-08
3.927026695e-13
1.721653828e-08
3.019502231e-13
1.721644856e-08
3.615466227e-13
1.721637748e-08
2.938181142e-13
1.721629354e-08
3.352468814e-13
1.721622347e-08
2.846492707e-13
1.72161445e-08
3.127844852e-13
1.721607585e-08
2.749165203e-13
1.721600123e-08
2.933388721e-13
1.721593432e-08
2.648472944e-13
1.72158635e-08
2.764965183e-13
1.721579852e-08
2.547442691e-13
1.721573114e-08
2.614452306e-13
1.72156682e-08
2.447716041e-13
1.721560392e-08
2.480672541e-13
1.721554307e-08
2.350553273e-13
1.721548163e-08
2.359834814e-13
1.721542289e-08
2.2562881e-13
1.721536406e-08
2.24973744e-13
1.721530743e-08
2.165606331e-13
1.721525104e-08
2.148368745e-13
1.721519644e-08
2.079110199e-13
1.721514235e-08
2.054436938e-13
1.721508976e-08
1.995464694e-13
1.721503777e-08
1.968438616e-13
1.721498712e-08
1.916588141e-13
1.721493719e-08
1.886201578e-13
1.721488843e-08
1.840633917e-13
1.721484042e-08
1.809715786e-13
1.721479346e-08
1.768753581e-13
1.721474727e-08
1.737733472e-13
1.721470205e-08
1.699985845e-13
1.721465762e-08
1.66919993e-13
1.721461409e-08
1.63401464e-13
1.721457135e-08
1.603588063e-13
1.721452947e-08
1.570581504e-13
1.721448838e-08
1.539976173e-13
1.721444812e-08
1.508485277e-13
1.721440866e-08
1.477564823e-13
1.721437004e-08
1.445428439e-13
1.721433223e-08
1.415420277e-13
1.721429531e-08
1.381419463e-13
1.721425931e-08
1.347493701e-13
1.721422429e-08
1.310425704e-13
1.721419032e-08
1.271551257e-13
1.721415755e-08
1.227158961e-13
1.72141261e-08
1.178652752e-13
1.721409623e-08
1.12101152e-13
1.721406817e-08
1.055107827e-13
1.721404235e-08
9.738689384e-14
1.721401916e-08
8.782474251e-14
1.721399934e-08
7.56926455e-14
1.721398356e-08
6.110428397e-14
1.721397294e-08
4.250205524e-14
1.721396873e-08
1.950508546e-14
1.721397271e-08
-9.905579875e-15
1.721398689e-08
-4.651452173e-14
1.721401414e-08
-9.336874303e-14
1.721405773e-08
-1.519585489e-13
1.721412218e-08
-2.266466865e-13
1.721421277e-08
-3.202493262e-13
1.721433653e-08
-4.389557683e-13
1.721450188e-08
-5.877258334e-13
1.72147197e-08
-7.752295759e-13
1.721500318e-08
-1.009873683e-12
1.721536898e-08
-1.303627044e-12
1.721583754e-08
-1.670351701e-12
1.721643408e-08
-2.126156998e-12
1.721718992e-08
-2.693456196e-12
1.72181426e-08
-3.392906933e-12
1.721933959e-08
-4.260400166e-12
1.72208361e-08
-5.321088407e-12
1.722270279e-08
-6.630532066e-12
1.722501948e-08
-8.216771746e-12
1.722788977e-08
-1.016467308e-11
1.723142654e-08
-1.249951303e-11
1.723577872e-08
-1.534830661e-11
1.724110164e-08
-1.872134633e-11
1.724760426e-08
-2.280448908e-11
1.725549262e-08
-2.756886533e-11
1.72650509e-08
-3.327954797e-11
1.72765387e-08
-3.982518094e-11
1.729032649e-08
-4.757260574e-11
1.730671701e-08
-5.625844273e-11
1.73261656e-08
-6.637191287e-11
1.734898198e-08
-7.739565082e-11
1.737567931e-08
-8.995835125e-11
1.740649994e-08
-1.031651802e-10
1.744194562e-08
-1.177828414e-10
1.748207253e-08
-1.324385677e-10
1.752725246e-08
-1.48012816e-10
1.757721545e-08
-1.626660821e-10
1.763204999e-08
-1.773197858e-10
1.769107303e-08
-1.899344979e-10
1.775395568e-08
-2.013005725e-10
1.781968537e-08
-2.098140502e-10
-2.157652956e-10
1.788747128e-08
1.993934213e-08
6.820348058e-13
1.993911241e-08
1.151636759e-12
1.99390284e-08
4.769353162e-13
1.993868633e-08
1.630838405e-12
1.993864858e-08
3.422027176e-13
1.993832329e-08
1.567354708e-12
1.993830252e-08
2.889399085e-13
1.9938025e-08
1.36320356e-12
1.993800315e-08
2.88231691e-13
1.99377708e-08
1.159648015e-12
1.993774013e-08
3.094678893e-13
1.993754375e-08
9.900008491e-13
1.993750245e-08
3.347949949e-13
1.993733363e-08
8.548821677e-13
1.993728271e-08
3.559839334e-13
1.993713509e-08
7.477939485e-13
1.993707639e-08
3.705859769e-13
1.993694523e-08
6.623264976e-13
1.993688084e-08
3.786479174e-13
1.993676263e-08
5.93599597e-13
1.993669429e-08
3.8112584e-13
1.993658642e-08
5.379218397e-13
1.993651571e-08
3.792010768e-13
1.993641626e-08
4.921469726e-13
1.993634444e-08
3.737720176e-13
1.993625198e-08
4.540063437e-13
1.993618002e-08
3.657789811e-13
1.993609345e-08
4.218222275e-13
1.993602208e-08
3.560152875e-13
1.993594054e-08
3.9432488e-13
1.993587029e-08
3.451725516e-13
1.993579315e-08
3.704826064e-13
1.993572441e-08
3.335914213e-13
1.993565108e-08
3.498243997e-13
1.993558412e-08
3.217139311e-13
1.993551428e-08
3.312805181e-13
1.993544924e-08
3.098045839e-13
1.993538254e-08
3.147705651e-13
1.993531954e-08
2.98058323e-13
1.993525571e-08
2.998096087e-13
1.993519479e-08
2.865500807e-13
1.993513363e-08
2.861382695e-13
1.99350748e-08
2.753886782e-13
1.993501614e-08
2.735098779e-13
1.993495938e-08
2.646659846e-13
1.993490306e-08
2.617662857e-13
1.993484832e-08
2.542692376e-13
1.993479418e-08
2.509826303e-13
1.993474145e-08
2.443862607e-13
1.993468944e-08
2.406370178e-13
1.993463863e-08
2.348623863e-13
1.993458859e-08
2.310117336e-13
1.993453965e-08
2.258098806e-13
1.99344915e-08
2.219134353e-13
1.993444437e-08
2.171195499e-13
1.993439805e-08
2.132373805e-13
1.993435267e-08
2.087751647e-13
1.993430811e-08
2.04914979e-13
1.993426445e-08
2.007154667e-13
1.99342216e-08
1.968527248e-13
1.993417967e-08
1.92773315e-13
1.993413853e-08
1.888950456e-13
1.993409823e-08
1.848369194e-13
1.993405886e-08
1.809217651e-13
1.993402042e-08
1.765760922e-13
1.993398291e-08
1.722586721e-13
1.993394646e-08
1.674862114e-13
1.993391111e-08
1.625019511e-13
1.993387704e-08
1.567847739e-13
1.993384437e-08
1.505317331e-13
1.993381339e-08
1.430803543e-13
1.993378435e-08
1.345516503e-13
1.993375769e-08
1.240367685e-13
1.993373387e-08
1.116404955e-13
1.993371367e-08
9.588492949e-14
1.99336978e-08
7.696854798e-14
1.993368749e-08
5.28116197e-14
1.993368409e-08
2.291384421e-14
1.993368951e-08
-1.533674426e-14
1.993370593e-08
-6.293904344e-14
1.993373644e-08
-1.238944137e-13
1.993378459e-08
-2.001087327e-13
1.993385527e-08
-2.973190924e-13
1.993395415e-08
-4.191381898e-13
1.993408891e-08
-5.737074223e-13
1.993426859e-08
-7.674054817e-13
1.993450504e-08
-1.011672831e-12
1.99348125e-08
-1.317336688e-12
1.993520913e-08
-1.700262535e-12
1.993571706e-08
-2.178277558e-12
1.993636384e-08
-2.772942763e-12
1.993718351e-08
-3.513106842e-12
1.99382172e-08
-4.426580721e-12
1.993951671e-08
-5.559892834e-12
1.994114296e-08
-6.947332302e-12
1.994317343e-08
-8.661005583e-12
1.994569691e-08
-1.074025318e-11
1.99488279e-08
-1.329567421e-11
1.995269334e-08
-1.636494195e-11
1.995745961e-08
-2.011457067e-11
1.996330392e-08
-2.456565403e-11
1.997046315e-08
-2.996371222e-11
1.997917701e-08
-3.628273645e-11
1.998977378e-08
-4.387632807e-11
2.000256346e-08
-5.261486991e-11
2.001798475e-08
-6.299390063e-11
2.003641159e-08
-7.468529623e-11
2.005840078e-08
-8.836109738e-11
2.008435493e-08
-1.033498052e-10
2.011492689e-08
-1.205303102e-10
2.015046037e-08
-1.386986486e-10
2.019163136e-08
-1.589538193e-10
2.023856915e-08
-1.793763439e-10
2.029182682e-08
-2.012704939e-10
2.0351113e-08
-2.219522518e-10
2.041664971e-08
-2.428565139e-10
2.048756353e-08
-2.60848321e-10
2.056354318e-08
-2.77280234e-10
2.064320355e-08
-2.894744431e-10
-2.981746891e-10
2.072561296e-08
2.245400986e-08
9.183953792e-13
2.245375526e-08
1.406243829e-12
2.245362669e-08
6.05497459e-13
2.245324605e-08
2.011482157e-12
2.245318172e-08
4.065301662e-13
2.245282341e-08
1.925667066e-12
2.245278674e-08
3.256171692e-13
2.245248423e-08
1.665713302e-12
2.245245283e-08
3.196284204e-13
2.245220225e-08
1.410229864e-12
2.245216592e-08
3.458027693e-13
2.245195636e-08
1.199554723e-12
2.245191182e-08
3.793344664e-13
2.245173352e-08
1.033183615e-12
2.245168074e-08
4.087409567e-13
2.245152626e-08
9.023197461e-13
2.245146658e-08
4.302607347e-13
2.24513304e-08
7.985072431e-13
2.245126542e-08
4.436237375e-13
2.245114346e-08
7.15567342e-13
2.245107476e-08
4.49824475e-13
2.245096408e-08
6.486028204e-13
2.245089311e-08
4.501602971e-13
2.245079155e-08
5.937133811e-13
2.245071952e-08
4.458002521e-13
2.245062544e-08
5.480824257e-13
2.24505533e-08
4.379263538e-13
2.245046549e-08
5.096352171e-13
2.245039395e-08
4.275557063e-13
2.245031145e-08
4.768186569e-13
2.245024103e-08
4.155912628e-13
2.245016316e-08
4.483577028e-13
2.245009428e-08
4.024792412e-13
2.24500204e-08
4.236992127e-13
2.244995332e-08
3.888019051e-13
2.244988308e-08
4.015179206e-13
2.244981795e-08
3.749271597e-13
2.244975097e-08
3.81760377e-13
2.244968791e-08
3.611165578e-13
2.24496239e-08
3.638215983e-13
2.244956296e-08
3.474891014e-13
2.24495017e-08
3.474035528e-13
2.24494429e-08
3.341932291e-13
2.244938419e-08
3.322249002e-13
2.244932753e-08
3.213252293e-13
2.244927124e-08
3.1805785e-13
2.244921655e-08
3.089342769e-13
2.244916253e-08
3.050070134e-13
2.244910997e-08
2.969494874e-13
2.244905807e-08
2.925335823e-13
2.244900744e-08
2.854881846e-13
2.244895757e-08
2.808799126e-13
2.244890884e-08
2.745365639e-13
2.24488609e-08
2.698401189e-13
2.244881401e-08
2.64004165e-13
2.244876793e-08
2.593106653e-13
2.244872282e-08
2.538851332e-13
2.244867853e-08
2.491956737e-13
2.244863516e-08
2.440850051e-13
2.244859259e-08
2.394134721e-13
2.2448551e-08
2.343723384e-13
2.244851017e-08
2.297267935e-13
2.244847022e-08
2.247977787e-13
2.244843119e-08
2.199490376e-13
2.244839312e-08
2.146548036e-13
2.244835599e-08
2.093863859e-13
2.244831993e-08
2.035345194e-13
2.244828499e-08
1.974340899e-13
2.244825136e-08
1.904135813e-13
2.244821916e-08
1.827292932e-13
2.244818869e-08
1.73550363e-13
2.24481602e-08
1.630366961e-13
2.244813415e-08
1.50080389e-13