/*--------------------------------*- C++ -*----------------------------------*\
  =========                 |
  \\      /  F ield         | OpenFOAM: The Open Source CFD Toolbox
   \\    /   O peration     | Website:  https://openfoam.org
    \\  /    A nd           | Version:  7
     \\/     M anipulation  |
\*---------------------------------------------------------------------------*/
FoamFile
{
    version     2.0;
    format      ascii;
    class       surfaceScalarField;
    location    "0.361";
    object      phi_0;
}
// * * * * * * * * * * * * * * * * * * * * * * * * * * * * * * * * * * * * * //

dimensions      [1 0 -1 0 0 0 0];

internalField   nonuniform List<scalar> 
71017
(
1.644071312e-09
2.408409366e-13
1.643909952e-09
1.613598705e-13
1.643807516e-09
1.02435649e-13
1.64370808e-09
9.943651582e-14
1.643654005e-09
5.407486942e-14
1.643583453e-09
7.055201292e-14
1.643548224e-09
3.522890114e-14
1.64349437e-09
5.385438724e-14
1.643467972e-09
2.639826875e-14
1.643425285e-09
4.268642779e-14
1.643403621e-09
2.166409267e-14
1.64336885e-09
3.477068863e-14
1.643350022e-09
1.882769102e-14
1.643321051e-09
2.897160875e-14
1.643304112e-09
1.693794702e-14
1.643279503e-09
2.460877906e-14
1.643263958e-09
1.554491575e-14
1.643242707e-09
2.125147016e-14
1.643228268e-09
1.443882406e-14
1.643209659e-09
1.860913362e-14
1.643196156e-09
1.35035392e-14
1.643179642e-09
1.651413069e-14
1.643166955e-09
1.268713199e-14
1.643152133e-09
1.482180688e-14
1.643140181e-09
1.195239892e-14
1.643126747e-09
1.343458854e-14
1.643115468e-09
1.127929879e-14
1.643103187e-09
1.22816855e-14
1.643092529e-09
1.065806128e-14
1.643081217e-09
1.131232471e-14
1.643071134e-09
1.008432817e-14
1.643060649e-09
1.04844543e-14
1.643051094e-09
9.553781775e-15
1.643041317e-09
9.775978115e-15
1.643032261e-09
9.055347095e-15
1.643023102e-09
9.158515824e-15
1.643014502e-09
8.598774552e-15
1.643005886e-09
8.615776061e-15
1.642997711e-09
8.173513033e-15
1.642989577e-09
8.133720519e-15
1.642981799e-09
7.778630871e-15
1.642974097e-09
7.701973911e-15
1.642966685e-09
7.411620238e-15
1.642959374e-09
7.311317394e-15
1.642952306e-09
7.068359824e-15
1.642945346e-09
6.959382012e-15
1.642938602e-09
6.744528501e-15
1.642931969e-09
6.633198196e-15
1.642925516e-09
6.45346231e-15
1.642919185e-09
6.330763622e-15
1.642913016e-09
6.170356993e-15
1.642906964e-09
6.053050065e-15
1.642901056e-09
5.908153231e-15
1.642895262e-09
5.793607507e-15
1.6428896e-09
5.661219437e-15
1.642884049e-09
5.550513294e-15
1.642878621e-09
5.427306147e-15
1.642873301e-09
5.320353673e-15
1.642868096e-09
5.205567131e-15
1.642862996e-09
5.10018022e-15
1.642858006e-09
4.991054529e-15
1.642853122e-09
4.883813145e-15
1.642848342e-09
4.778889149e-15
1.64284367e-09
4.671784432e-15
1.642839112e-09
4.557508732e-15
1.642834665e-09
4.44728113e-15
1.642830341e-09
4.324801214e-15
1.642826144e-09
4.197605947e-15
1.642822092e-09
4.05378901e-15
1.642818197e-09
3.89547596e-15
1.642814486e-09
3.709919548e-15
1.642810986e-09
3.498370707e-15
1.642807744e-09
3.242430619e-15
1.642804804e-09
2.940203706e-15
1.642802245e-09
2.558800967e-15
1.642800139e-09
2.105094585e-15
1.64279862e-09
1.51865551e-15
1.64279782e-09
8.000056775e-16
1.642797934e-09
-1.141295882e-16
1.642799189e-09
-1.254507211e-15
1.6428019e-09
-2.711403202e-15
1.642806431e-09
-4.532820352e-15
1.642813282e-09
-6.852510831e-15
1.642823038e-09
-9.757514507e-15
1.642836476e-09
-1.343807173e-14
1.642854526e-09
-1.804864842e-14
1.642878381e-09
-2.385445361e-14
1.642909501e-09
-3.111884254e-14
1.6429497e-09
-4.019859493e-14
1.643001234e-09
-5.153336028e-14
1.643066819e-09
-6.558503051e-14
1.643149899e-09
-8.307990211e-14
1.643254483e-09
-1.045830975e-13
1.643385712e-09
-1.312285985e-13
1.643549425e-09
-1.637130782e-13
1.643753176e-09
-2.037513632e-13
1.644005224e-09
-2.520493296e-13
1.644316445e-09
-3.112220986e-13
1.644698218e-09
-3.81771924e-13
1.645165776e-09
-4.675557334e-13
1.645734226e-09
-5.684488984e-13
1.646424203e-09
-6.899783359e-13
1.647254808e-09
-8.306059695e-13
1.648252816e-09
-9.98010307e-13
1.649440768e-09
-1.187956238e-12
1.650851476e-09
-1.410710778e-12
1.65250895e-09
-1.6574749e-12
1.654450303e-09
-1.941353392e-12
1.65669697e-09
-2.246667849e-12
1.659286301e-09
-2.589330823e-12
1.662230808e-09
-2.944509436e-12
1.665561107e-09
-3.3303014e-12
1.669273231e-09
-3.712123856e-12
1.673381937e-09
-4.108706014e-12
1.677860619e-09
-4.478684209e-12
1.682699166e-09
-4.838548814e-12
1.687847955e-09
-5.148789934e-12
1.693266561e-09
-5.41860171e-12
1.698891395e-09
-5.624836105e-12
-5.761285744e-12
1.704652683e-09
4.91728916e-09
2.86529206e-13
4.917132691e-09
3.178286683e-13
4.917010632e-09
2.244956601e-13
4.916811121e-09
2.989475567e-13
4.916710997e-09
1.541994424e-13
4.916536452e-09
2.450971264e-13
4.916458659e-09
1.130222881e-13
4.916315161e-09
1.973522136e-13
4.916251554e-09
9.000443593e-14
4.916134061e-09
1.601797528e-13
4.916079045e-09
7.667970791e-14
4.915981685e-09
1.321295375e-13
4.915932138e-09
6.837385414e-14
4.915850169e-09
1.109402753e-13
4.915804447e-09
6.265830706e-14
4.915734336e-09
9.471886238e-14
4.915691586e-09
5.829496817e-14
4.915630747e-09
8.209097641e-14
4.915590479e-09
5.470764336e-14
4.915536995e-09
7.209336321e-14
4.915498937e-09
5.156098541e-14
4.915451332e-09
6.411925e-14
4.915415282e-09
4.873837357e-14
4.915372448e-09
5.765717824e-14
4.915338268e-09
4.613372299e-14
4.91529936e-09
5.234519092e-14
4.91526694e-09
4.370055891e-14
4.915231302e-09
4.792070425e-14
4.915200541e-09
4.142048994e-14
4.915167661e-09
4.419330373e-14
4.915138458e-09
3.928814675e-14
4.915107935e-09
4.100764215e-14
4.915080195e-09
3.728899844e-14
4.915051688e-09
3.827977092e-14
4.915025328e-09
3.54124013e-14
4.914998592e-09
3.589244914e-14
4.914973518e-09
3.367079224e-14
4.914948337e-09
3.379526006e-14
4.914924464e-09
3.204408682e-14
4.914900667e-09
3.193012336e-14
4.914877919e-09
3.052656987e-14
4.914855365e-09
3.025642845e-14
4.914833667e-09
2.911001581e-14
4.914812238e-09
2.874019957e-14
4.914791525e-09
2.778163946e-14
4.914771112e-09
2.737297808e-14
4.914751326e-09
2.652954255e-14
4.914731869e-09
2.609167585e-14
4.914712927e-09
2.539821844e-14
4.914694332e-09
2.492715753e-14
4.914676213e-09
2.429169422e-14
4.91465843e-09
2.383716004e-14
4.914641069e-09
2.326902684e-14
4.914624037e-09
2.282384714e-14
4.914607391e-09
2.230526882e-14
4.914591068e-09
2.187338395e-14
4.914575104e-09
2.139095169e-14
4.914559455e-09
2.097126771e-14
4.91454414e-09
2.052228727e-14
4.914529136e-09
2.010553463e-14
4.914514446e-09
1.968035912e-14
4.91450007e-09
1.925909513e-14
4.914486009e-09
1.883833389e-14
4.914472251e-09
1.842828845e-14
4.914458828e-09
1.798030438e-14
4.914445736e-09
1.754137454e-14
4.914433005e-09
1.705926041e-14
4.91442065e-09
1.655598071e-14
4.91440872e-09
1.59854955e-14
4.914397253e-09
1.53602662e-14
4.914386333e-09
1.462664659e-14
4.914376037e-09
1.379299704e-14
4.914366505e-09
1.277568501e-14
4.914357866e-09
1.157979837e-14
4.914350356e-09
1.006760254e-14
4.914344202e-09
8.258160966e-15
4.914339778e-09
5.942414003e-15
4.914337487e-09
3.09119291e-15
4.914337918e-09
-5.445869506e-16
4.914341733e-09
-5.071508215e-15
4.914349875e-09
-1.085644082e-14
4.914363427e-09
-1.808948374e-14
4.91438387e-09
-2.729950181e-14
4.914412948e-09
-3.883629521e-14
4.914452966e-09
-5.34533132e-14
4.91450669e-09
-7.17696858e-14
4.914577669e-09
-9.483159892e-14
4.914670242e-09
-1.236913821e-13
4.914789802e-09
-1.597589541e-13
4.914943064e-09
-2.047944087e-13
4.915138099e-09
-2.606188876e-13
4.915385156e-09
-3.301356717e-13
4.91569618e-09
-4.15606866e-13
4.916086446e-09
-5.214939286e-13
4.916573346e-09
-6.506156859e-13
4.917179391e-09
-8.097991307e-13
4.917929188e-09
-1.001848295e-12
4.918855154e-09
-1.237186526e-12
4.919991246e-09
-1.517858296e-12
4.921382914e-09
-1.859221109e-12
4.923075323e-09
-2.260859395e-12
4.925130145e-09
-2.744802197e-12
4.927604609e-09
-3.305074842e-12
4.930578907e-09
-3.972316807e-12
4.934120814e-09
-4.729868865e-12
4.938328881e-09
-5.61878083e-12
4.943275625e-09
-6.604221385e-12
4.949073032e-09
-7.73876132e-12
4.955786282e-09
-8.95991843e-12
4.963528725e-09
-1.033177856e-11
4.972339234e-09
-1.175502367e-11
4.982311646e-09
-1.330271457e-11
4.993435333e-09
-1.483581127e-11
5.005757e-09
-1.643037683e-11
5.019197292e-09
-1.791897777e-11
5.033728017e-09
-1.936927838e-11
5.049199123e-09
-2.061990037e-11
5.065490359e-09
-2.170982009e-11
5.082408027e-09
-2.254248515e-11
-2.309504973e-11
5.099741781e-09
8.142919608e-09
2.955714551e-13
8.142806038e-09
4.313987397e-13
8.142745646e-09
2.848880397e-13
8.142532884e-09
5.117107663e-13
8.14245871e-09
2.283738878e-13
8.142242307e-09
4.614997003e-13
8.142169841e-09
1.854892411e-13
8.141978016e-09
3.891761438e-13
8.141909114e-09
1.58906646e-13
8.141745157e-09
3.241363993e-13
8.141679053e-09
1.427833756e-13
8.141539439e-09
2.717421773e-13
8.14147546e-09
1.323509814e-13
8.141355682e-09
2.307158494e-13
8.141293585e-09
1.247528748e-13
8.141189705e-09
1.985988419e-13
8.141129515e-09
1.184860845e-13
8.141038399e-09
1.732073395e-13
8.140980187e-09
1.129201563e-13
8.140899377e-09
1.529036578e-13
8.14084327e-09
1.076685144e-13
8.140770813e-09
1.365771312e-13
8.140716858e-09
1.026953031e-13
8.140651251e-09
1.232675866e-13
8.140599493e-09
9.789506035e-14
8.14053957e-09
1.122710696e-13
8.140490017e-09
9.325525419e-14
8.140434866e-09
1.030739244e-13
8.140387495e-09
8.879394524e-14
8.140336395e-09
9.529567456e-14
8.140291146e-09
8.45378577e-14
8.140243524e-09
8.862846434e-14
8.140200329e-09
8.047953168e-14
8.140155701e-09
8.290305534e-14
8.140114473e-09
7.663676437e-14
8.140072492e-09
7.786996612e-14
8.140033135e-09
7.30242687e-14
8.139993489e-09
7.343843572e-14
8.139955904e-09
6.962721148e-14
8.139918348e-09
6.948624578e-14
8.13988244e-09
6.643459746e-14
8.139846769e-09
6.592796966e-14
8.139812442e-09
6.343692834e-14
8.139778488e-09
6.269452052e-14
8.139745653e-09
6.061710984e-14
8.139713262e-09
5.976299554e-14
8.139681837e-09
5.795462664e-14
8.139650912e-09
5.703012877e-14
8.139620795e-09
5.551888157e-14
8.139591204e-09
5.452256084e-14
8.139562356e-09
5.314235959e-14
8.139534023e-09
5.217098967e-14
8.13950635e-09
5.094063494e-14
8.139479188e-09
4.998390142e-14
8.139452631e-09
4.886003472e-14
8.139426577e-09
4.792722687e-14
8.139401088e-09
4.688092947e-14
8.139376091e-09
4.597085384e-14
8.13935162e-09
4.499636861e-14
8.139327639e-09
4.408700341e-14
8.139304154e-09
4.31646838e-14
8.139281161e-09
4.22496904e-14
8.139258676e-09
4.132314362e-14
8.139236664e-09
4.043972479e-14
8.139215184e-09
3.946210736e-14
8.139194232e-09
3.849744053e-14
8.139173857e-09
3.744009677e-14
8.139154084e-09
3.633354362e-14
8.139134991e-09
3.507698556e-14
8.139116642e-09
3.370434723e-14
8.139099175e-09
3.209008846e-14
8.139082712e-09
3.025607352e-14
8.139067483e-09
2.800707643e-14
8.139053697e-09
2.536558901e-14
8.139041738e-09
2.202557049e-14
8.139031979e-09
1.801610917e-14
8.139025021e-09
1.290114862e-14
8.13902152e-09
6.592016609e-15
8.139022434e-09
-1.460560207e-15
8.139028841e-09
-1.148246555e-14
8.13904227e-09
-2.429204295e-14
8.139064483e-09
-4.030898466e-14
8.139097886e-09
-6.070501849e-14
8.139145313e-09
-8.625983204e-14
8.139210506e-09
-1.186429645e-13
8.139297965e-09
-1.592275549e-13
8.139413462e-09
-2.103294024e-13
8.13956405e-09
-2.742806825e-13
8.139758512e-09
-3.542204934e-13
8.140007759e-09
-4.540402941e-13
8.140324963e-09
-5.778211036e-13
8.140726776e-09
-7.319477093e-13
8.141232711e-09
-9.215638645e-13
8.141867677e-09
-1.156466881e-12
8.14266009e-09
-1.443034494e-12
8.143646709e-09
-1.796421676e-12
8.144867877e-09
-2.223013495e-12
8.146376654e-09
-2.745956967e-12
8.148228907e-09
-3.370105376e-12
8.150499291e-09
-4.129604782e-12
8.153262478e-09
-5.024045926e-12
8.156620243e-09
-6.102568642e-12
8.160667816e-09
-7.352654845e-12
8.165538398e-09
-8.842905932e-12
8.171345759e-09
-1.053723246e-11
8.178254996e-09
-1.252802146e-11
8.186389368e-09
-1.47385948e-11
8.195938668e-09
-1.72880652e-11
8.207015842e-09
-2.003709669e-11
8.219816174e-09
-2.313211739e-11
8.234410178e-09
-2.634902641e-11
8.250964013e-09
-2.985655059e-11
8.269464844e-09
-3.333664805e-11
8.290002356e-09
-3.696789037e-11
8.312444406e-09
-4.036102558e-11
8.336754678e-09
-4.367954929e-11
8.362674667e-09
-4.653988289e-11
8.39000939e-09
-4.904456361e-11
8.418419083e-09
-5.095215462e-11
-5.222696105e-11
8.447550993e-09
1.128949799e-08
3.313146114e-13
1.128936955e-08
5.598383864e-13
1.128934256e-08
3.118733684e-13
1.128911967e-08
7.346001227e-13
1.128908374e-08
2.643046588e-13
1.128884987e-08
6.953773581e-13
1.1288805e-08
2.303612254e-13
1.128859136e-08
6.028077595e-13
1.12885389e-08
2.113690966e-13
1.128835183e-08
5.112016371e-13
1.128829338e-08
2.012356942e-13
1.128813096e-08
4.341639959e-13
1.128806821e-08
1.950980286e-13
1.128792662e-08
3.722981537e-13
1.128786121e-08
1.901621332e-13
1.128773678e-08
3.230297581e-13
1.128767012e-08
1.851475335e-13
1.128755974e-08
2.835883376e-13
1.128749289e-08
1.797720833e-13
1.128739402e-08
2.517676022e-13
1.128732783e-08
1.738570512e-13
1.128723842e-08
2.259982192e-13
1.128717345e-08
1.67661206e-13
1.128709186e-08
2.048659466e-13
1.128702854e-08
1.612118407e-13
1.12869535e-08
1.873157986e-13
1.128689212e-08
1.546370182e-13
1.128682263e-08
1.725715713e-13
1.128676336e-08
1.480693627e-13
1.128669861e-08
1.600489383e-13
1.128664152e-08
1.416256332e-13
1.128658087e-08
1.492737459e-13
1.128652601e-08
1.353434189e-13
1.128646892e-08
1.399890671e-13
1.128641625e-08
1.293036707e-13
1.128636233e-08
1.317851234e-13
1.128631181e-08
1.235421388e-13
1.12862607e-08
1.245374325e-13
1.128621226e-08
1.18069565e-13
1.12861637e-08
1.180489673e-13
1.128611726e-08
1.128777627e-13
1.1286071e-08
1.121835248e-13
1.128602647e-08
1.079658714e-13
1.128598234e-08
1.068300078e-13
1.128593962e-08
1.033311199e-13
1.128589745e-08
1.019359986e-13
1.128585648e-08
9.892279687e-14
1.128581609e-08
9.743401829e-14
1.128577678e-08
9.483600567e-14
1.12857381e-08
9.32009927e-14
1.128570036e-08
9.08886189e-14
1.128566326e-08
8.926631145e-14
1.128562701e-08
8.719153948e-14
1.12855914e-08
8.558986054e-14
1.128555657e-08
8.368932227e-14
1.128552238e-08
8.211992602e-14
1.128548892e-08
8.034879639e-14
1.128545608e-08
7.881057256e-14
1.128542392e-08
7.71571375e-14
1.128539239e-08
7.561491615e-14
1.128536151e-08
7.40500865e-14
1.128533126e-08
7.249415786e-14
1.128530168e-08
7.091091622e-14
1.12852727e-08
6.941740331e-14
1.128524442e-08
6.774282052e-14
1.128521684e-08
6.608813144e-14
1.128519001e-08
6.427375227e-14
1.128516397e-08
6.237201514e-14
1.128513884e-08
6.020913551e-14
1.128511468e-08
5.784969723e-14
1.128509171e-08
5.506654559e-14
1.128507007e-08
5.189952845e-14
1.128505007e-08
4.800540863e-14
1.1285032e-08
4.34302312e-14
1.128501639e-08
3.764243881e-14
1.128500372e-08
3.068310194e-14
1.12849948e-08
2.181335381e-14
1.128499053e-08
1.086243574e-14
1.128499219e-08
-3.122755487e-15
1.128500123e-08
-2.052747306e-14
1.128501971e-08
-4.278104538e-14
1.128505e-08
-7.060724312e-14
1.128509535e-08
-1.060505227e-13
1.128515956e-08
-1.504680733e-13
1.128524768e-08
-2.067651387e-13
1.128536578e-08
-2.773243257e-13
1.128552163e-08
-3.661833589e-13
1.128572473e-08
-4.77387527e-13
1.128598696e-08
-6.164489315e-13
1.1286323e-08
-7.90078584e-13
1.128675073e-08
-1.005550007e-12
1.128729254e-08
-1.273772126e-12
1.128797489e-08
-1.603933908e-12
1.128883158e-08
-2.013157167e-12
1.128990115e-08
-2.512607844e-12
1.129123341e-08
-3.128684695e-12
1.12928835e-08
-3.873093011e-12
1.12949236e-08
-4.786047334e-12
1.129743038e-08
-5.876888396e-12
1.130050599e-08
-7.205214311e-12
1.130425365e-08
-8.771699727e-12
1.130881359e-08
-1.066250537e-11
1.131431875e-08
-1.285781274e-11
1.132095441e-08
-1.547857313e-11
1.132888152e-08
-1.846434448e-11
1.133833268e-08
-2.197918764e-11
1.134948556e-08
-2.58914685e-11
1.136261209e-08
-3.041460051e-11
1.137787986e-08
-3.530486639e-11
1.139557547e-08
-4.08277271e-11
1.141581043e-08
-4.658398052e-11
1.143883815e-08
-5.288428036e-11
1.146465219e-08
-5.91506846e-11
1.149340385e-08
-6.571954332e-11
1.152490949e-08
-7.186667251e-11
1.155914215e-08
-7.791219676e-11
1.159572191e-08
-8.311963854e-11
1.16343888e-08
-8.771143433e-11
1.167462898e-08
-9.119229154e-11
-9.354294519e-11
1.171594495e-08
1.432549121e-08
4.006499016e-13
1.43253284e-08
7.226530693e-13
1.432529844e-08
3.418283085e-13
1.43250425e-08
9.905381854e-13
1.432502357e-08
2.83238031e-13
1.432476622e-08
9.527289323e-13
1.432474342e-08
2.531568096e-13
1.432451269e-08
8.335448148e-13
1.432447961e-08
2.444442734e-13
1.432427869e-08
7.12125984e-13
1.432423452e-08
2.45395836e-13
1.432405982e-08
6.088628593e-13
1.432400622e-08
2.486930443e-13
1.43238532e-08
5.253158838e-13
1.432379257e-08
2.507962554e-13
1.432365722e-08
4.583746615e-13
1.432359185e-08
2.505221236e-13
1.432347095e-08
4.04490379e-13
1.432340269e-08
2.480249779e-13
1.432329361e-08
3.608471303e-13
1.4323224e-08
2.434702309e-13
1.432312463e-08
3.253693153e-13
1.432305475e-08
2.3754397e-13
1.432296346e-08
2.961658762e-13
1.432289416e-08
2.305147825e-13
1.432280966e-08
2.718250843e-13
1.432274154e-08
2.227517759e-13
1.432266281e-08
2.513059771e-13
1.432259631e-08
2.145775891e-13
1.432252254e-08
2.338168513e-13
1.432245791e-08
2.062624918e-13
1.432238847e-08
2.187125345e-13
1.432232588e-08
1.979277247e-13
1.432226021e-08
2.056593194e-13
1.432219976e-08
1.897545975e-13
1.432213748e-08
1.940602791e-13
1.432207919e-08
1.818290504e-13
1.432201994e-08
1.837792517e-13
1.432196381e-08
1.742078771e-13
1.432190732e-08
1.745346325e-13
1.43218533e-08
1.668976483e-13
1.432179934e-08
1.661422122e-13
1.432174739e-08
1.599227926e-13
1.432169577e-08
1.584461994e-13
1.432164579e-08
1.533103303e-13
1.432159637e-08
1.513593912e-13
1.432154832e-08
1.46965654e-13
1.432150089e-08
1.448681654e-13
1.43214547e-08
1.410291861e-13
1.43214092e-08
1.387035954e-13
1.432136477e-08
1.3531385e-13
1.432132107e-08
1.329699018e-13
1.432127834e-08
1.299226721e-13
1.432123634e-08
1.275921572e-13
1.432119523e-08
1.247940114e-13
1.432115485e-08
1.224976225e-13
1.432111532e-08
1.198877239e-13
1.432107651e-08
1.176268129e-13
1.432103848e-08
1.15183758e-13
1.432100118e-08
1.129105103e-13
1.432096464e-08
1.105993983e-13
1.432092884e-08
1.082961406e-13
1.432089381e-08
1.059342333e-13
1.43208595e-08
1.037370009e-13
1.432082601e-08
1.01239158e-13
1.432079334e-08
9.876237801e-14
1.432076156e-08
9.60511585e-14
1.432073073e-08
9.320703648e-14
1.432070096e-08
8.99656888e-14
1.432067238e-08
8.642912099e-14
1.432064521e-08
8.224353536e-14
1.432061964e-08
7.747054041e-14
1.432059605e-08
7.159321631e-14
1.43205748e-08
6.468192801e-14
1.432055651e-08
5.592886065e-14
1.432054178e-08
4.540016349e-14
1.432053161e-08
3.197795019e-14
1.432052708e-08
1.539668411e-14
1.432052974e-08
-5.792058865e-15
1.432054137e-08
-3.216268541e-14
1.432056448e-08
-6.589393699e-14
1.432060194e-08
-1.08073379e-13
1.432065772e-08
-1.618208387e-13
1.432073644e-08
-2.291850253e-13
1.432084425e-08
-3.145878041e-13
1.432098855e-08
-4.216241343e-13
1.432117883e-08
-5.564660176e-13
1.432142665e-08
-7.25215465e-13
1.432174655e-08
-9.363470366e-13
1.432215642e-08
-1.199942786e-12
1.432267818e-08
-1.527311454e-12
1.432333918e-08
-1.934775829e-12
1.432417194e-08
-2.436710198e-12
1.432521784e-08
-3.059059409e-12
1.432652445e-08
-3.819216436e-12
1.432815301e-08
-4.757240766e-12
1.43301719e-08
-5.891975013e-12
1.433267032e-08
-7.284461811e-12
1.433574409e-08
-8.950652099e-12
1.433952031e-08
-1.098143103e-11
1.434412925e-08
-1.338062518e-11
1.43497471e-08
-1.628035592e-11
1.435654386e-08
-1.965457426e-11
1.436475539e-08
-2.369010267e-11
1.437459115e-08
-2.830010513e-11
1.43863523e-08
-3.374033178e-11
1.440027591e-08
-3.981507893e-11
1.441672203e-08
-4.68607223e-11
1.443592266e-08
-5.450548894e-11
1.445826917e-08
-6.317423706e-11
1.448392824e-08
-7.224305435e-11
1.451326262e-08
-8.221864892e-11
1.454628604e-08
-9.217408765e-11
1.458323989e-08
-1.026733914e-10
1.462389248e-08
-1.125192642e-10
1.466825388e-08
-1.222735952e-10
1.471580359e-08
-1.306693259e-10
1.476623343e-08
-1.381412742e-10
1.481881159e-08
-1.437704698e-10
-1.476239207e-10
1.487289254e-08
1.721930303e-08
5.144638712e-13
1.721910363e-08
9.220535847e-13
1.721905276e-08
3.926984556e-13
1.721875436e-08
1.288944446e-12
1.72187333e-08
3.042903752e-13
1.721844389e-08
1.242145114e-12
1.721842893e-08
2.681138274e-13
1.721817678e-08
1.085692208e-12
1.721815485e-08
2.663812908e-13
1.721793968e-08
9.272856801e-13
1.721790628e-08
2.788013024e-13
1.721772154e-08
7.935922932e-13
1.721767673e-08
2.935045498e-13
1.721751601e-08
6.860334797e-13
1.721746176e-08
3.050443465e-13
1.721731998e-08
6.001464221e-13
1.721725865e-08
3.118832545e-13
1.721713198e-08
5.311464343e-13
1.721706574e-08
3.142661257e-13
1.721695122e-08
4.753746115e-13
1.721688189e-08
3.127971971e-13
1.721677722e-08
4.30045291e-13
1.721670626e-08
3.085083747e-13
1.721660972e-08
3.927058084e-13
1.721653827e-08
3.019660913e-13
1.721644855e-08
3.615508212e-13
1.721637748e-08
2.938292905e-13
1.721629354e-08
3.352486514e-13
1.721622346e-08
2.846569795e-13
1.721614449e-08
3.127840656e-13
1.721607584e-08
2.749173287e-13
1.721600122e-08
2.933286433e-13
1.721593432e-08
2.648382678e-13
1.721586349e-08
2.764838878e-13
1.721579851e-08
2.547347162e-13
1.721573113e-08
2.614354703e-13
1.721566819e-08
2.447657174e-13
1.721560391e-08
2.480601543e-13
1.721554307e-08
2.350528206e-13
1.721548162e-08
2.359821097e-13
1.721542289e-08
2.256312496e-13
1.721536406e-08
2.249747224e-13
1.721530742e-08
2.165613041e-13
1.721525103e-08
2.148379204e-13
1.721519642e-08
2.079161813e-13
1.721514233e-08
2.054490523e-13
1.721508975e-08
1.995489402e-13
1.721503775e-08
1.968591085e-13
1.721498711e-08
1.916742464e-13
1.721493719e-08
1.88636029e-13
1.721488842e-08
1.840799144e-13
1.721484041e-08
1.809844203e-13
1.721479345e-08
1.768835467e-13
1.721474726e-08
1.737794081e-13
1.721470205e-08
1.700067482e-13
1.721465762e-08
1.669309572e-13
1.721461409e-08
1.634127016e-13
1.721457136e-08
1.603679347e-13
1.721452948e-08
1.570651785e-13
1.721448838e-08
1.540059794e-13
1.721444812e-08
1.508602785e-13
1.721440866e-08
1.477672983e-13
1.721437005e-08
1.445595604e-13
1.721433223e-08
1.415625187e-13
1.721429531e-08
1.381588608e-13
1.721425931e-08
1.347698861e-13
1.721422429e-08
1.31066639e-13
1.721419032e-08
1.271786001e-13
1.721415754e-08
1.22736578e-13
1.721412609e-08
1.178847163e-13
1.721409621e-08
1.121236609e-13
1.721406815e-08
1.05541211e-13
1.721404231e-08
9.742903072e-14
1.721401911e-08
8.788027546e-14
1.721399927e-08
7.576512475e-14
1.721398346e-08
6.120128979e-14
1.721397281e-08
4.262180017e-14
1.721396855e-08
1.965000021e-14
1.721397247e-08
-9.721227417e-15
1.721398658e-08
-4.627341551e-14
1.721401374e-08
-9.305159814e-14
1.721405721e-08
-1.515469233e-13
1.721412152e-08
-2.261222173e-13
1.721421192e-08
-3.19588852e-13
1.721433545e-08
-4.381252871e-13
1.72145005e-08
-5.866813195e-13
1.721471795e-08
-7.739172322e-13
1.721500096e-08
-1.008228465e-12
1.721536619e-08
-1.301565598e-12
1.721583402e-08
-1.66777654e-12
1.721642966e-08
-2.122952143e-12
1.721718436e-08
-2.689482106e-12
1.721813564e-08
-3.387986923e-12
1.72193309e-08
-4.254323086e-12
1.722082529e-08
-5.313595077e-12
1.722268937e-08
-6.621313852e-12
1.722500285e-08
-8.205458596e-12
1.722786922e-08
-1.015082951e-11
1.72314012e-08
-1.248262932e-11
1.723574755e-08
-1.532777189e-11
1.724106338e-08
-1.869644927e-11
1.724755741e-08
-2.277437916e-11
1.725543542e-08
-2.753257504e-11
1.726498123e-08
-3.32359152e-11
1.727645407e-08
-3.97729342e-11
1.729022397e-08
-4.751022416e-11
1.730659318e-08
-5.618429749e-11
1.732601643e-08
-6.628398117e-11
1.734880288e-08
-7.729193901e-11
1.737546493e-08
-8.9836286e-11
1.74062442e-08
-1.030223193e-10
1.744164147e-08
-1.176159024e-10
1.748171208e-08
-1.32244688e-10
1.752682654e-08
-1.477878457e-10
1.757671394e-08
-1.624066628e-10
1.763146114e-08
-1.770207912e-10
1.769038394e-08
-1.895921163e-10
1.775315147e-08
-2.009088039e-10
1.781874984e-08
-2.093688203e-10
-2.1526009e-10
1.788638601e-08
1.993934211e-08
6.821211175e-13
1.993911234e-08
1.151816829e-12
1.993902842e-08
4.766280104e-13
1.993868629e-08
1.631073604e-12
1.993864858e-08
3.419946671e-13
1.993832327e-08
1.567460981e-12
1.993830251e-08
2.88869982e-13
1.993802499e-08
1.3632148e-12
1.993800314e-08
2.882290571e-13
1.99377708e-08
1.159624378e-12
1.993774012e-08
3.094786025e-13
1.993754374e-08
9.899654349e-13
1.993750244e-08
3.348002454e-13
1.993733362e-08
8.548440163e-13
1.993728268e-08
3.55976523e-13
1.993713508e-08
7.477711357e-13
1.993707637e-08
3.706069007e-13
1.993694522e-08
6.623041645e-13
1.993688083e-08
3.786572912e-13
1.993676262e-08
5.93587409e-13
1.993669427e-08
3.811409756e-13
1.99365864e-08
5.379192621e-13
1.993651569e-08
3.792201548e-13
1.993641625e-08
4.921512766e-13
1.993634443e-08
3.737917878e-13
1.993625197e-08
4.54010709e-13
1.993618001e-08
3.657931775e-13
1.993609344e-08
4.218244903e-13
1.993602207e-08
3.560260712e-13
1.993594054e-08
3.943258663e-13
1.993587028e-08
3.451747913e-13
1.993579314e-08
3.704705154e-13
1.99357244e-08
3.335796794e-13
1.993565107e-08
3.498092599e-13
1.99355841e-08
3.217035544e-13
1.993551427e-08
3.31269754e-13
1.993544923e-08
3.097992178e-13
1.993538253e-08
3.14763963e-13
1.993531953e-08
2.980566574e-13
1.993525571e-08
2.998084491e-13
1.993519479e-08
2.865519022e-13
1.993513362e-08
2.861381961e-13
1.99350748e-08
2.753888783e-13
1.993501613e-08
2.735113799e-13
1.993495937e-08
2.64673994e-13
1.993490304e-08
2.617773294e-13
1.993484831e-08
2.542896141e-13
1.993479417e-08
2.510042547e-13
1.993474144e-08
2.444048014e-13
1.993468943e-08
2.406568987e-13
1.993463863e-08
2.348830199e-13
1.993458858e-08
2.310285091e-13
1.993453964e-08
2.258228115e-13
1.99344915e-08
2.219257602e-13
1.993444437e-08
2.171342708e-13
1.993439805e-08
2.132528622e-13
1.993435267e-08
2.087887985e-13
1.993430812e-08
2.049272387e-13
1.993426446e-08
2.007275379e-13
1.99342216e-08
1.968662138e-13
1.993417967e-08
1.927915526e-13
1.993413853e-08
1.889201337e-13
1.993409824e-08
1.848702604e-13
1.993405886e-08
1.809448437e-13
1.993402042e-08
1.765968726e-13
1.993398291e-08
1.722835346e-13
1.993394646e-08
1.6751388e-13
1.993391111e-08
1.625291397e-13
1.993387703e-08
1.568111466e-13
1.993384436e-08
1.505594953e-13
1.993381337e-08
1.431145812e-13
1.993378432e-08
1.345961036e-13
1.993375766e-08
1.240949007e-13
1.993373382e-08
1.117142834e-13
1.993371359e-08
9.598056161e-14
1.99336977e-08
7.70949873e-14
1.993368735e-08
5.296663668e-14
1.993368389e-08
2.310430054e-14
1.993368925e-08
-1.508797084e-14
1.993370559e-08
-6.261231244e-14
1.993373601e-08
-1.234697691e-13
1.993378403e-08
-1.995673448e-13
1.993385454e-08
-2.966359139e-13
1.993395323e-08
-4.182780214e-13
1.993408772e-08
-5.726226507e-13
1.993426708e-08
-7.660400245e-13
1.993450312e-08
-1.009956652e-12
1.993481008e-08
-1.315182687e-12
1.993520608e-08
-1.697561924e-12
1.993571321e-08
-2.174906605e-12
1.993635901e-08
-2.768750568e-12
1.993717743e-08
-3.507897629e-12
1.993820959e-08
-4.420135842e-12
1.99395072e-08
-5.551936467e-12
1.994113113e-08
-6.937516794e-12
1.994315875e-08
-8.648922388e-12
1.994567871e-08
-1.072542263e-11
1.99488054e-08
-1.327752518e-11
1.995266557e-08
-1.63427971e-11
1.995742543e-08
-2.008761984e-11
1.996326194e-08
-2.453295508e-11
1.997041171e-08
-2.992413618e-11
1.997911414e-08
-3.623499757e-11
1.998969712e-08
-4.381888931e-11
2.000247024e-08
-5.254604511e-11
2.001787166e-08
-6.291165047e-11
2.00362748e-08
-7.458744119e-11
2.005823577e-08
-8.824496605e-11
2.008415653e-08
-1.032126895e-10
2.011468902e-08
-1.203687806e-10
2.015017616e-08
-1.385094511e-10
2.019129283e-08
-1.58732559e-10
2.023816735e-08
-1.791192006e-10
2.029135137e-08
-2.009718603e-10
2.035055237e-08
-2.216076617e-10
2.041599046e-08
-2.424588876e-10
2.048679089e-08
-2.60392542e-10
2.05626399e-08
-2.767577975e-10
2.064215075e-08
-2.888796915e-10
-2.97498164e-10
2.072438882e-08
2.245400984e-08
9.185089949e-13
2.245375518e-08
1.406466301e-12
2.245362671e-08
6.051038198e-13
2.2453246e-08
2.011782227e-12
2.245318173e-08
4.062624842e-13
2.245282339e-08
1.925804981e-12
2.245278673e-08
3.255255325e-13
2.245248422e-08
1.665729292e-12
2.245245282e-08
3.19622659e-13
2.245220224e-08
1.41020089e-12
2.24521659e-08
3.458151372e-13
2.245195635e-08
1.199511854e-12
2.245191181e-08
3.793403321e-13
2.245173351e-08
1.03312869e-12
2.245168071e-08
4.087107947e-13
2.245152624e-08
9.022857245e-13
2.245146657e-08
4.302789618e-13
2.245133039e-08
7.984832707e-13
2.245126541e-08
4.436386261e-13
2.245114344e-08
7.155546878e-13
2.245107474e-08
4.49844842e-13
2.245096406e-08
6.486001071e-13
2.24508931e-08
4.50184105e-13
2.245079153e-08
5.937176955e-13
2.245071951e-08
4.458225002e-13
2.245062544e-08
5.480866314e-13
2.245055329e-08
4.379437273e-13
2.245046548e-08
5.096386739e-13
2.245039394e-08
4.275694676e-13
2.245031144e-08
4.76820608e-13
2.245024102e-08
4.155949043e-13
2.245016315e-08
4.483438421e-13
2.245009426e-08
4.024641774e-13
2.245002039e-08
4.236829542e-13
2.24499533e-08
3.887915464e-13
2.244988307e-08
4.015074524e-13
2.244981794e-08
3.749235914e-13
2.244975096e-08
3.817544396e-13
2.24496879e-08
3.611153648e-13
2.244962389e-08
3.638198143e-13
2.244956295e-08
3.474900963e-13
2.244950169e-08
3.474024356e-13
2.244944289e-08
3.341938785e-13
2.244938418e-08
3.322262902e-13
2.244932752e-08
3.213374123e-13
2.244927121e-08
3.180879549e-13
2.244921654e-08
3.089723762e-13
2.244916251e-08
3.050291841e-13
2.244910995e-08
2.969707932e-13
2.244905806e-08
2.925571432e-13
2.244900743e-08
2.855115944e-13
2.244895756e-08
2.808990979e-13
2.244890883e-08
2.74553583e-13
2.244886089e-08
2.698578734e-13
2.2448814e-08
2.640240214e-13
2.244876793e-08
2.59329781e-13
2.244872282e-08
2.539020435e-13
2.244867853e-08
2.492131051e-13
2.244863516e-08
2.441043788e-13
2.24485926e-08
2.394319621e-13
2.2448551e-08
2.343962182e-13
2.244851017e-08
2.297519713e-13
2.244847022e-08
2.248240728e-13
2.24484312e-08
2.199708997e-13
2.244839312e-08
2.14678882e-13
2.244835599e-08
2.094150553e-13
2.244831993e-08
2.03566041e-13
2.244828499e-08
1.974666107e-13
2.244825136e-08
1.904468206e-13
2.244821915e-08
1.827670732e-13
2.244818868e-08
1.735969055e-13
2.244816018e-08
1.630954183e-13
2.244813412e-08
1.50154166e-13