/*--------------------------------*- C++ -*----------------------------------*\
  =========                 |
  \\      /  F ield         | OpenFOAM: The Open Source CFD Toolbox
   \\    /   O peration     | Website:  https://openfoam.org
    \\  /    A nd           | Version:  7
     \\/     M anipulation  |
\*---------------------------------------------------------------------------*/
FoamFile
{
    version     2.0;
    format      ascii;
    class       volScalarField;
    location    "0.361";
    object      radSRC;
}
// * * * * * * * * * * * * * * * * * * * * * * * * * * * * * * * * * * * * * //

dimensions      [1 -1 -3 0 0 0 0];

internalField   nonuniform List<scalar> 
35870
(
-6.23165833e-77
6.394978484e-75
-9.923061915e-74
-3.974674485e-73
-3.818935242e-72
2.862966498e-72
1.427395898e-70
1.095099666e-69
5.255615113e-69
1.819003602e-68
5.695980155e-68
1.039885953e-68
-1.083271957e-66
-6.258573277e-66
-2.938976184e-65
-1.417250485e-64
-4.691664815e-64
-2.775971292e-63
-1.000177754e-62
-4.711595603e-62
-2.521756181e-61
-9.098369762e-61
-3.329593059e-60
-1.156353547e-59
-3.87967499e-59
-1.728159246e-58
-7.714240421e-58
-2.963278168e-57
-1.294329696e-56
-4.842033964e-56
-1.90493172e-55
-7.396259921e-55
-2.6558141e-54
-9.309011586e-54
-2.983500576e-53
-9.411472248e-53
-3.060249063e-52
-9.170245699e-52
-2.37381292e-51
-6.523599509e-51
-2.072165934e-50
-7.202468594e-50
-2.023039355e-49
-2.763998048e-49
8.676018703e-49
7.467377306e-48
2.882462354e-47
1.057736617e-46
2.592669538e-46
5.094068026e-46
1.530900892e-45
5.703212114e-45
2.026572645e-44
5.401261664e-44
1.45664359e-43
4.667371186e-43
1.672178829e-42
5.425485465e-42
1.312833976e-41
2.456444513e-41
1.96986522e-41
-8.773936904e-41
-8.329121124e-40
-1.714453832e-39
2.11362385e-39
3.016559424e-38
1.381858774e-37
4.634612073e-37
1.305776181e-36
3.284399017e-36
7.673046598e-36
1.781421846e-35
4.607296713e-35
1.320307154e-34
3.753083199e-34
1.169288557e-33
2.486860687e-33
4.344109366e-33
7.340725512e-33
1.223195267e-32
2.281762319e-32
5.849415591e-32
1.809823695e-31
4.404710331e-31
5.922479307e-31
-2.74360769e-31
-3.564159253e-30
-1.072791979e-29
-2.593267737e-29
-5.108850045e-29
-5.097422283e-29
1.108295663e-28
1.534284718e-27
3.929503958e-27
5.268713143e-27
4.415613836e-27
6.366301461e-27
3.919977409e-26
1.357379855e-25
2.877234331e-25
4.971612037e-25
9.040672192e-25
1.793106348e-24
6.084105857e-24
1.911939245e-23
3.398583312e-23
3.482901872e-23
1.091123012e-22
2.780832548e-22
3.963182765e-22
7.913473596e-22
2.195357138e-21
2.718940736e-21
4.111352859e-21
1.348773433e-20
9.608976153e-21
-1.290599553e-19
-7.772472805e-20
-3.046478822e-18
-1.853883797e-17
-2.822372044e-76
9.023134464e-75
-1.558057013e-73
-5.642995756e-73
-4.910362297e-72
2.348155872e-71
2.126210616e-70
1.572718705e-69
9.745449497e-69
2.958251057e-68
6.477531816e-68
-3.595646474e-68
-1.787742067e-66
-1.191106674e-65
-6.605636894e-65
-2.863066457e-64
-8.625762212e-64
-4.700693223e-63
-2.010008218e-62
-9.362898581e-62
-4.107048883e-61
-1.665068765e-60
-5.752277269e-60
-2.098468588e-59
-7.736241212e-59
-3.113114486e-58
-1.358343077e-57
-5.600677153e-57
-2.149069158e-56
-8.729427479e-56
-3.575264954e-55
-1.34315357e-54
-4.788990544e-54
-1.704711747e-53
-5.546520908e-53
-1.824657277e-52
-6.082011344e-52
-1.741639112e-51
-4.764283234e-51
-1.449267091e-50
-4.477230436e-50
-1.38965312e-49
-3.375275374e-49
-3.87705813e-49
1.560434039e-48
1.255071941e-47
4.714570317e-47
1.699227346e-46
5.44622821e-46
1.409257706e-45
4.323236054e-45
1.437706548e-44
3.820213358e-44
9.44615765e-44
2.724468544e-43
1.050156598e-42
3.81189065e-42
1.112715428e-41
2.30979726e-41
3.2382725e-41
-5.47806131e-42
-2.810215948e-40
-1.399780528e-39
-1.66848085e-39
1.024747805e-38
7.597377688e-38
3.046881077e-37
9.581200305e-37
2.603315672e-36
6.365125509e-36
1.477111884e-35
3.60320118e-35
9.714385826e-35
2.763470954e-34
7.39297562e-34
1.909551601e-33
4.138070585e-33
6.747754785e-33
1.193136084e-32
2.077900565e-32
4.188587362e-32
1.209331155e-31
3.422435801e-31
6.217174741e-31
2.823200871e-31
-1.927386233e-30
-7.548976239e-30
-2.116109376e-29
-5.163490628e-29
-8.517969256e-29
-1.532513914e-29
4.827877801e-28
2.09016071e-27
5.713828858e-27
6.616772325e-27
9.876864494e-27
3.213293622e-26
9.082837017e-26
1.962993524e-25
4.125572566e-25
9.19397411e-25
2.145493364e-24
5.515472204e-24
1.533747639e-23
2.842344935e-23
2.842564131e-23
5.718380906e-23
3.976308523e-24
5.860306783e-23
4.505852718e-22
1.629163023e-21
3.500706436e-21
1.172221219e-21
8.114529849e-21
-4.665764655e-21
-1.311855822e-19
-1.051087845e-18
-5.466881989e-18
-2.200518254e-17
-1.040894686e-16
-3.778196029e-75
1.539420614e-74
-4.043589889e-73
-1.375494346e-72
-7.315466903e-72
4.707031746e-71
6.985387074e-70
4.212080291e-69
1.905657368e-68
5.952154631e-68
1.216732328e-67
-1.919334187e-67
-5.773510428e-66
-3.656540323e-65
-1.67352173e-64
-7.090301944e-64
-2.438973294e-63
-1.124989155e-62
-5.07514773e-62
-2.236608031e-61
-1.038013942e-60
-4.105720487e-60
-1.50009661e-59
-5.55066634e-59
-2.237438541e-58
-8.620717497e-58
-3.754396249e-57
-1.494084621e-56
-6.075471349e-56
-2.355826207e-55
-9.215348814e-55
-3.441061648e-54
-1.166941049e-53
-4.218160959e-53
-1.504598554e-52
-5.262845436e-52
-1.721939989e-51
-5.106652491e-51
-1.399820451e-50
-4.233315845e-50
-1.37354243e-49
-4.045262665e-49
-9.567896977e-49
-1.21507579e-48
3.327136889e-48
2.372564441e-47
9.64096489e-47
7.78152958e-46
1.8268051e-45
5.116798992e-45
1.6053832e-44
4.304460246e-44
9.539202829e-44
2.125841443e-43
7.362185729e-43
3.022532248e-42
1.037926534e-41
2.68941061e-41
5.311214539e-41
6.395544248e-41
-6.606204713e-41
-7.031918767e-40
-1.8158754e-39
3.688962557e-39
5.762172749e-38
2.844965507e-37
1.002100804e-36
2.90419101e-36
7.410963835e-36
1.714122956e-35
3.880429745e-35
9.636013109e-35
2.677113352e-34
7.261353232e-34
1.775774309e-33
3.794041257e-33
8.033832439e-33
1.275722192e-32
2.144242033e-32
3.632090265e-32
9.655630738e-32
3.177031863e-31
7.410149875e-31
7.546773768e-31
-1.294635733e-30
-7.237032449e-30
-2.196579717e-29
-6.01041988e-29
-1.24003677e-28
-1.318205542e-28
2.123780885e-28
1.441918168e-27
5.226850523e-27
7.21883917e-27
7.381846921e-27
3.316193883e-26
1.203151945e-25
2.556080816e-25
4.741847974e-25
1.115917582e-24
2.438558195e-24
5.166248627e-24
1.413029339e-23
2.960808003e-23
2.816382908e-23
4.460856393e-23
1.55348311e-22
2.965858957e-22
4.746757673e-22
1.836148513e-21
1.696197809e-21
-2.666419548e-21
-5.003626813e-21
-8.855245312e-20
-6.295514789e-19
-2.621618933e-18
-1.357046954e-17
-6.581161874e-17
-2.798528441e-16
-1.281525287e-15
-1.538456853e-74
-1.478280949e-74
-1.558995155e-72
-2.870569634e-72
-1.842158192e-71
1.965671876e-70
1.698375259e-69
9.518646734e-69
4.40224734e-68
1.301794105e-67
8.853968213e-68
-1.645591296e-66
-1.839358251e-65
-1.074382075e-64
-4.715002632e-64
-2.023433539e-63
-6.190729661e-63
-2.767714735e-62
-1.358255191e-61
-6.153331748e-61
-2.913847833e-60
-1.241201712e-59
-4.644892464e-59
-1.873644638e-58
-7.568765821e-58
-2.996440762e-57
-1.211939314e-56
-4.699828704e-56
-1.838015886e-55
-7.022665689e-55
-2.697419005e-54
-9.772780989e-54
-3.238366316e-53
-1.213046762e-52
-4.577919269e-52
-1.625225308e-51
-5.298020542e-51
-1.562805268e-50
-4.155415379e-50
-1.317044868e-49
-4.461152246e-49
-1.394654033e-48
-3.740333744e-48
-6.985799792e-48
-6.371810331e-48
1.695499719e-47
1.767386807e-46
1.767462313e-45
3.566123139e-45
1.282511136e-44
3.841109826e-44
9.172909941e-44
1.559621611e-43
3.573791841e-43
1.758237375e-42
7.978354984e-42
2.594132026e-41
6.673652722e-41
1.369932174e-40
1.889175834e-40
-1.46968973e-42
-4.833484336e-40
3.068545735e-39
4.1209294e-38
2.640307761e-37
1.083536027e-36
3.436687586e-36
9.250675429e-36
2.15775934e-35
4.631203962e-35
1.019908363e-34
2.563656024e-34
6.89119466e-34
1.735587502e-33
3.82907625e-33
7.150686011e-33
1.43783941e-32
2.248244386e-32
2.992628804e-32
5.392547217e-32
2.378298849e-31
7.995293431e-31
1.35379317e-30
6.114359548e-32
-5.663197963e-30
-1.911650755e-29
-5.817527158e-29
-1.378006497e-28
-1.808329662e-28
8.351666421e-29
1.212609495e-27
5.309378562e-27
1.692786452e-26
7.005076786e-27
2.447454012e-26
1.23942236e-25
3.612081357e-25
7.016492881e-25
1.317662748e-24
2.459271019e-24
3.767969879e-24
7.970045686e-24
2.223859374e-23
2.689328417e-23
3.640039865e-23
1.912184446e-22
3.728729467e-22
1.106052808e-21
8.45756803e-22
-8.160164347e-22
-1.72151829e-20
-7.739471302e-20
-3.341285314e-19
-1.965718995e-18
-9.585923993e-18
-4.489436202e-17
-2.104076429e-16
-9.848184239e-16
-4.515945698e-15
-2.012467987e-14
-2.164622075e-74
-9.132739198e-74
-3.576581318e-72
-3.506816023e-72
-3.142828813e-71
4.393398026e-70
4.771976431e-69
2.447171835e-68
1.181638356e-67
2.456283585e-67
-1.022874855e-68
-5.703829647e-66
-6.284786185e-65
-3.68401944e-64
-1.453932986e-63
-5.308736096e-63
-1.382725799e-62
-4.589127794e-62
-2.570274693e-61
-1.514739668e-60
-8.501662308e-60
-3.962125206e-59
-1.586421516e-58
-6.453627647e-58
-2.647520634e-57
-1.027302341e-56
-4.030938839e-56
-1.529377795e-55
-5.974083392e-55
-2.218658219e-54
-8.109690098e-54
-2.794944012e-53
-9.337378366e-53
-3.603463637e-52
-1.433181344e-51
-5.026328662e-51
-1.598808281e-50
-4.809835028e-50
-1.396754381e-49
-4.331669057e-49
-1.465082085e-48
-4.746288036e-48
-1.330303272e-47
-3.240545902e-47
-7.379723467e-47
-1.863887213e-46
-4.406395277e-46
-3.691513027e-46
3.795342522e-45
2.226393962e-44
6.787673659e-44
1.021802127e-43
6.863480373e-44
4.250180762e-43
3.997749135e-42
1.886588539e-41
6.185100073e-41
1.717365242e-40
4.334339302e-40
8.705457068e-40
1.474400408e-39
5.605249963e-39
3.474417315e-38
2.045609617e-37
1.006243174e-36
3.70135554e-36
1.096148322e-35
2.708946123e-35
5.818466778e-35
1.168383997e-34
2.526564706e-34
6.145962892e-34
1.517404409e-33
3.503711376e-33
7.386251243e-33
1.46220178e-32
2.838311829e-32
4.776775127e-32
7.122602964e-32
2.146484692e-31
9.376019777e-31
2.557782627e-30
3.521923567e-30
1.712526411e-30
-2.373177276e-30
-1.526411851e-29
-4.639115421e-29
6.654789667e-30
4.831942563e-28
2.01281837e-27
5.795485695e-27
9.527818955e-27
1.403663186e-26
4.08517394e-26
1.241131695e-25
4.086213704e-25
8.433431436e-25
1.354099016e-24
2.133667896e-24
1.371047476e-24
-1.069678333e-24
7.915548571e-24
2.282957349e-23
5.695781399e-23
2.179808932e-22
1.489816564e-22
-6.618758957e-22
-2.861497517e-21
-1.214942253e-20
-6.965557433e-20
-2.794342112e-19
-1.3210789e-18
-6.53743008e-18
-3.132123897e-17
-1.53122447e-16
-7.401104908e-16
-3.530259815e-15
-1.654335568e-14
-7.552249105e-14
-3.373579619e-13
-1.320872805e-73
1.078595365e-73
-1.045510718e-71
-1.584339747e-71
-1.422570113e-71
1.49256415e-69
1.186689404e-68
5.843356266e-68
2.377592587e-67
4.582745282e-67
-1.746828836e-66
-2.618795195e-65
-2.067030142e-64
-1.189407158e-63
-4.291290459e-63
-8.739799996e-63
-2.77983629e-62
-1.485482281e-61
-4.118710223e-61
-4.068018413e-60
-2.67595206e-59
-1.288295747e-58
-5.615388659e-58
-2.274874151e-57
-9.329530696e-57
-3.482904979e-56
-1.32751331e-55
-5.058531506e-55
-1.916061462e-54
-6.920363961e-54
-2.398540888e-53
-8.111275223e-53
-2.823158216e-52
-1.076569371e-51
-4.44890696e-51
-1.594890872e-50
-4.965741372e-50
-1.468385101e-49
-4.208022869e-49
-1.382088184e-48
-5.040734435e-48
-1.725356807e-47
-5.219110746e-47
-1.503846209e-46
-4.416783098e-46
-1.329073756e-45
-4.157675109e-45
-8.913659446e-45
-5.02370169e-45
1.815053756e-44
3.890621409e-44
-9.39512356e-44
-5.436622153e-43
3.836296528e-44
1.001781705e-41
5.038932639e-41
1.675794384e-40
5.655692826e-40
1.643580755e-39
4.359721041e-39
1.207752357e-38
4.134330071e-38
2.522442043e-38
6.376004414e-37
3.18678651e-36
1.111498077e-35
3.094153294e-35
7.163595673e-35
1.422268444e-34
2.706815487e-34
5.505048137e-34
1.216372366e-33
2.60638573e-33
5.477396938e-33
1.389215906e-32
4.039279842e-32
1.018798881e-31
2.294616196e-31
5.869060895e-31
1.838303563e-30
5.254221359e-30
1.171507412e-29
2.213428133e-29
4.380237371e-29
1.033971802e-28
2.446117087e-28
7.0930738e-28
2.133218292e-27
5.327958835e-27
1.154689226e-26
2.615498717e-26
5.629609877e-26
1.029622884e-25
1.928536551e-25
6.346302667e-25
1.365637856e-24
1.541406363e-24
8.36456017e-25
1.801212448e-24
1.518840576e-24
9.624385073e-24
6.158557093e-23
1.420131441e-22
1.586684648e-22
-5.990839456e-22
-3.545191344e-21
-9.575609346e-21
-3.703470584e-20
-2.043184365e-19
-1.04759879e-18
-4.489169317e-18
-2.183527006e-17
-1.061032092e-16
-5.200583475e-16
-2.563242418e-15
-1.25543731e-14
-6.063292676e-14
-2.857031817e-13
-1.303200604e-12
-5.778441247e-12
-4.70302687e-73
1.357856762e-72
-2.850088267e-71
-2.090827873e-71
-2.872541027e-71
4.224727739e-69
2.792925564e-68
1.172931345e-67
5.227469824e-67
1.811584575e-67
-1.003229643e-65
-1.040016911e-64
-7.546372625e-64
-3.77313588e-63
-1.510569626e-62
-3.542190873e-62
-1.781840185e-62
-9.550506389e-62
-1.269376005e-60
-1.500331399e-59
-9.81811639e-59
-4.773920895e-58
-1.996372704e-57
-7.657704339e-57
-2.952307811e-56
-1.109380401e-55
-4.180892624e-55
-1.542871871e-54
-5.909018613e-54
-2.080349376e-53
-7.061952974e-53
-2.427806561e-52
-8.781899197e-52
-3.368960078e-51
-1.396502556e-50
-4.952027237e-50
-1.504207196e-49
-4.451313998e-49
-1.319324395e-48
-4.415930892e-48
-1.62469288e-47
-5.877121333e-47
-1.969654315e-46
-6.30017754e-46
-2.074516716e-45
-6.698896613e-45
-3.894269484e-44
-6.370400371e-44
-8.448550102e-44
-9.55699386e-44
-2.294464628e-43
-8.597337066e-43
-1.157053942e-42
5.109191439e-42
4.281482408e-41
1.77614393e-40
6.650952872e-40
2.258688338e-39
6.82804275e-39
1.876800442e-38
5.835211881e-38
1.551303419e-37
1.345642371e-37
2.11685149e-36
9.591195449e-36
3.082616028e-35
7.863781623e-35
1.662196009e-34
3.0513626e-34
5.435680272e-34
9.943267166e-34
1.714474893e-33
3.181325588e-33
9.967991546e-33
4.305835454e-32
1.74872251e-31
5.334180134e-31
1.379283171e-30
3.945407653e-30
1.097025118e-29
2.762933179e-29
6.24900422e-29
1.443820785e-28
3.3820678e-28
8.121721653e-28
2.1104765e-27
5.587298291e-27
1.313446213e-26
2.652536522e-26
5.303610218e-26
1.194500232e-25
1.798370398e-25
2.345432513e-25
9.942244194e-25
2.63755945e-24
3.735801064e-24
3.358087422e-24
7.993607714e-24
3.293060262e-23
9.538515965e-23
2.42174246e-22
4.227385464e-22
1.291513641e-22
-2.170980373e-21
-9.580398561e-21
-3.055189358e-20
-1.446439271e-19
-6.398763763e-19
-3.213960823e-18
-1.514144626e-17
-7.233088351e-17
-3.525287708e-16
-1.74240973e-15
-8.687657711e-15
-4.331629237e-14
-2.146245475e-13
-1.043537507e-12
-4.926695281e-12
-2.240414082e-11
-9.843130627e-11
-9.537660896e-73
3.451150025e-72
-6.81868246e-71
1.362340577e-72
-1.387847558e-71
1.113293698e-68
7.164823802e-68
2.804099806e-67
9.0480314e-67
-2.77537457e-66
-4.623365988e-65
-3.949367255e-64
-2.468286193e-63
-1.297508676e-62
-7.932699862e-62
-6.943892417e-62
2.1869347e-62
-5.514125216e-61
-9.448061654e-60
-7.121563265e-59
-3.814800733e-58
-1.662051213e-57
-6.77978658e-57
-2.529911564e-56
-9.357308864e-56
-3.320218375e-55
-1.267058839e-54
-4.803685245e-54
-1.84260494e-53
-6.321565003e-53
-2.181731224e-52
-7.56407465e-52
-2.808731302e-51
-1.104665799e-50
-4.515895676e-50
-1.573370618e-49
-4.758213646e-49
-1.323096199e-48
-4.072637512e-48
-1.423862796e-47
-5.456634783e-47
-2.001939486e-46
-7.090533532e-46
-2.410588481e-45
-8.540210543e-45
-3.198303477e-44
-1.360200123e-43
-2.029540006e-43
-3.125906368e-43
-4.499785604e-43
-7.315759841e-43
5.047483205e-43
1.158359323e-41
6.244710187e-41
2.539897612e-40
9.090643056e-40
3.011029955e-39
9.592662661e-39
2.954086959e-38
8.379027157e-38
2.573737207e-37
7.380776078e-37
2.010112992e-36
7.742562971e-36
2.654900553e-35
7.56250528e-35
1.762351507e-34
3.478156402e-34
6.102555497e-34
9.950351367e-34
1.376754843e-33
1.264956644e-33
6.149114427e-33
4.113287907e-32
1.820079492e-31
7.025449322e-31
2.423923796e-30
6.358590394e-30
1.768134356e-29
4.832485119e-29
1.230896494e-28
3.045778646e-28
7.42538857e-28
1.802536145e-27
4.402649365e-27
1.084410146e-26
2.568442265e-26
5.473143764e-26
1.091052398e-25
2.311684065e-25
4.832338763e-25
5.729018027e-25
2.320987911e-24
5.041312928e-24
8.927260772e-24
1.42817992e-23
3.639043571e-23
1.1901826e-22
3.017289154e-22
6.334738919e-22
9.638953046e-22
-7.349293727e-23
-5.375294467e-21
-2.257945132e-20
-9.202805205e-20
-4.105780075e-19
-2.043630483e-18
-1.033803565e-17
-4.937788008e-17
-2.385310759e-16
-1.164255752e-15
-5.737464612e-15
-2.865876098e-14
-1.441316798e-13
-7.250795038e-13
-3.617061793e-12
-1.765829525e-11
-8.339067403e-11
-3.773037213e-10
-1.638522806e-09
-3.70079346e-72
5.597575374e-72
-1.488600952e-70
0
1.094687422e-69
2.871004056e-68
1.68079313e-67
3.659294996e-67
5.187750196e-67
-1.764611773e-65
-1.730429699e-64
-1.385477529e-63
-8.376635491e-63
-3.947143548e-62
-1.634679002e-61
-4.4624523e-61
-1.701907481e-60
-8.916247719e-60
-5.373642317e-59
-2.843268872e-58
-1.339227657e-57
-5.499037278e-57
-2.122698293e-56
-7.61348839e-56
-2.743263963e-55
-9.828983589e-55
-3.684963033e-54
-1.446529491e-53
-5.548289896e-53
-2.005149795e-52
-6.799272819e-52
-2.429083314e-51
-7.648658692e-51
-3.978289847e-50
-1.519145745e-49
-5.03589781e-49
-1.452647848e-48
-4.187892514e-48
-1.269098428e-47
-4.622503341e-47
-1.795735918e-46
-6.850188518e-46
-2.474252068e-45
-8.788620668e-45
-3.130474946e-44
-1.378511874e-43
-2.917523616e-43
-5.634129297e-43
-9.925031644e-43
-1.288666448e-42
1.032897556e-42
1.734044422e-41
9.716439184e-41
3.992266796e-40
1.325246498e-39
4.074022864e-39
1.270226766e-38
3.777971222e-38
1.088634147e-37
3.223894446e-37
9.631599026e-37
1.9864406e-36
4.667177501e-36
1.873471494e-35
6.599872037e-35
1.835363586e-34
4.192033931e-34
8.125881889e-34
1.522748133e-33
2.590537945e-33
3.787850978e-33
1.052538408e-32
5.709448938e-32
2.337349113e-31
1.481950313e-31
9.756580843e-31
9.091211845e-30
2.549599016e-29
6.66824163e-29
1.830572113e-28
4.972098716e-28
1.305493539e-27
3.229155907e-27
7.824697905e-27
1.842030623e-26
4.20898798e-26
9.286359532e-26
1.967783607e-25
4.309092022e-25
1.005204964e-24
2.14903107e-24
4.083092552e-24
1.047360319e-23
1.903248158e-23
4.016167553e-23
9.944664985e-23
2.47715862e-22
6.205134201e-22
1.308466035e-21
1.502869003e-21
-1.9280324e-21
-1.606940967e-20
-6.302402833e-20
-2.808143724e-19
-1.400462951e-18
-6.68183233e-18
-3.286201113e-17
-1.599464264e-16
-7.736555598e-16
-3.763161432e-15
-1.845712881e-14
-9.171447003e-14
-4.608672712e-13
-2.333811552e-12
-1.18183203e-11
-5.925571927e-11
-2.899713648e-10
-1.367270657e-09
-6.141759409e-09
-2.629706122e-08
-9.288242502e-72
8.236334222e-71
-4.229113904e-70
1.248197602e-69
1.930607593e-69
9.371677315e-68
3.85648576e-67
5.827741052e-67
-3.092801521e-66
-8.12600192e-65
-7.126667456e-64
-4.617212221e-63
-2.695330915e-62
-1.262404319e-61
-5.424603874e-61
-2.021825501e-60
-8.64271699e-60
-3.945686314e-59
-2.036578849e-58
-9.525629515e-58
-4.194070689e-57
-1.649128275e-56
-6.383629066e-56
-2.195326519e-55
-7.935426378e-55
-2.814914907e-54
-1.104733004e-53
-4.319288239e-53
-1.725055687e-52
-6.261088125e-52
-2.154856334e-51
-7.700434047e-51
-2.343806747e-50
-1.285400448e-49
-4.72661739e-49
-1.513781459e-48
-4.303905638e-48
-1.192621106e-47
-4.040767383e-47
-1.520975585e-46
-5.767268523e-46
-2.199831256e-45
-8.38344994e-45
-2.973818339e-44
-1.05176652e-43
-4.181048466e-43
-8.184167312e-43
-1.821610828e-42
-3.23122389e-42
-2.830490453e-42
1.142327383e-41
1.008938544e-40
4.603300071e-40
1.654824055e-39
5.22760598e-39
1.556076949e-38
4.459086355e-38
1.248040304e-37
3.693851959e-37
1.121555209e-36
3.668094859e-36
-4.257038265e-36
-1.039944133e-35
2.392196904e-35
1.675318131e-34
5.25373232e-34
1.271006847e-33
2.78172235e-33
5.781391635e-33
1.104396544e-32
2.836125376e-32
1.100394391e-31
3.884134242e-31
9.019679512e-31
1.660702265e-30
7.643252648e-30
3.403968391e-29
9.272939378e-29
2.544708237e-28
7.314220247e-28
2.018990506e-27
5.181881032e-27
1.261740556e-26
2.890186184e-26
6.269213986e-26
1.366514956e-25
3.127994884e-25
7.526992275e-25
1.853732403e-24
4.683642471e-24
6.798736773e-24
1.896726969e-23
4.172991882e-23
9.492669752e-23
2.193645871e-22
4.608261269e-22
9.715638366e-22
2.010138214e-21
1.946449542e-21
-7.403192486e-21
-4.652795507e-20
-1.999146016e-19
-9.218052725e-19
-4.467439233e-18
-2.167899541e-17
-1.041540532e-16
-5.057638557e-16
-2.440486381e-15
-1.182154486e-14
-5.762061075e-14
-2.84040353e-13
-1.418010903e-12
-7.159467548e-12
-3.644597795e-11
-1.854606378e-10
-9.331771833e-10
-4.569742194e-09
-2.147373521e-08
-9.554818712e-08
-4.022743427e-07
-1.535258725e-71
1.149231302e-70
-8.25042958e-70
1.739262817e-69
1.476326873e-68
1.025597443e-67
5.251186362e-67
-2.831736934e-66
-2.923779643e-65
-3.387171497e-64
-2.297227968e-63
-1.54546834e-62
-8.386982796e-62
-3.82691953e-61
-1.708238943e-60
-6.765158728e-60
-2.925173567e-59
-1.360325783e-58
-6.513517054e-58
-2.909009783e-57
-1.263022886e-56
-4.881274824e-56
-1.82582937e-55
-6.2436818e-55
-2.212513497e-54
-8.314217988e-54
-3.323224561e-53
-1.368740974e-52
-5.442210291e-52
-1.994782336e-51
-6.899556176e-51
-2.499091005e-50
-9.721730713e-50
-3.92769605e-49
-1.345499476e-48
-4.108791301e-48
-1.178320909e-47
-3.39765876e-47
-1.16651355e-46
-4.582583165e-46
-1.819229006e-45
-7.063378771e-45
-2.683511397e-44
-9.627684693e-44
-3.080593161e-43
-6.819020999e-43
-2.202072194e-42
-5.74318711e-42
-1.233560349e-41
-1.380344776e-41
4.307068366e-41
3.458962874e-40
1.58457327e-39
5.580827777e-39
1.691851047e-38
4.586351812e-38
1.253372655e-37
3.531299104e-37
1.11142341e-36
3.659183727e-36
1.142817099e-35
-1.241868865e-35
-8.813699212e-36
1.293126532e-34
6.361028173e-34
1.977910659e-33
5.177093325e-33
1.215558639e-32
2.682482594e-32
6.770352997e-32
2.019827142e-31
6.515957195e-31
1.91242082e-30
4.56491487e-30
1.405782567e-29
4.724619818e-29
1.328974091e-28
3.614556192e-28
1.032996004e-27
2.888054153e-27
7.602963944e-27
1.911044629e-26
4.45137903e-26
9.296343781e-26
1.896679891e-25
4.489186615e-25
1.181482534e-24
3.104262313e-24
8.203483651e-24
2.084427143e-23
4.107616061e-23
1.023422049e-22
2.228722271e-22
5.132548719e-22
9.258098435e-22
1.487200761e-21
3.013283501e-21
2.279438075e-21
-2.077110526e-20
-1.27302439e-19
-5.879140198e-19
-2.817188938e-18
-1.368092466e-17
-6.565366406e-17
-3.180998837e-16
-1.54138801e-15
-7.420605339e-15
-3.582406815e-14
-1.73587908e-13
-8.485172144e-13
-4.194100109e-12
-2.099959676e-11
-1.063875751e-10
-5.435306797e-10
-2.774528007e-09
-1.398630357e-08
-6.8416514e-08
-3.197722102e-07
-1.406007377e-06
-5.804043056e-06
-8.491087323e-71
4.700943585e-70
-3.53386792e-69
7.90496185e-69
-1.052463321e-68
2.6947118e-67
-2.565657012e-68
-1.654918262e-65
-1.294497586e-64
-1.172138752e-63
-7.717406531e-63
-4.696312703e-62
-2.47798813e-61
-1.133922768e-60
-5.115356412e-60
-2.016491293e-59
-9.209494641e-59
-4.109385102e-58
-1.942746028e-57
-8.492271544e-57
-3.589154179e-56
-1.378903383e-55
-5.218709552e-55
-1.819048507e-54
-6.505848238e-54
-2.50925536e-53
-1.034294573e-52
-4.241019979e-52
-1.641417296e-51
-6.174421338e-51
-2.183351758e-50
-4.550863353e-50
-2.971181397e-49
-1.153300067e-48
-3.858385312e-48
-1.149310802e-47
-3.215403818e-47
-9.535930865e-47
-3.477653018e-46
-1.428091083e-45
-5.646978933e-45
-2.192912219e-44
-8.561014064e-44
-5.482621801e-43
-9.950257274e-43
-2.108653626e-42
-7.056438643e-42
-2.099686817e-41
-4.601604771e-41
-6.464511415e-41
5.946817621e-41
9.653517564e-40
4.306064895e-39
1.487595249e-38
4.105465083e-38
1.048349709e-37
2.721299998e-37
8.039383645e-37
2.698053734e-36
8.875520861e-36
2.362080558e-35
5.522634921e-35
2.035422079e-34
7.99416846e-34
2.728941445e-33
8.121249081e-33
2.105098117e-32
5.162073791e-32
1.279667212e-31
3.496724847e-31
1.024827797e-30
2.930964355e-30
7.755098265e-30
1.896260111e-29
5.730261268e-29
1.749615912e-28
4.923186525e-28
1.410384419e-27
3.933313252e-27
1.029434557e-26
2.594524888e-26
6.36235732e-26
1.399992018e-25
2.746898443e-25
6.122183094e-25
1.684360388e-24
4.718964754e-24
1.266804617e-23
3.661283234e-23
1.523630155e-22
2.803938926e-22
5.080687994e-22
1.07684669e-21
2.018037008e-21
3.074206128e-21
4.789121805e-21
1.880029641e-21
-4.717068656e-20
-3.209987271e-19
-1.630363519e-18
-8.032340436e-18
-3.915592007e-17
-1.897404274e-16
-9.513852708e-16
-4.460293493e-15
-2.152468428e-14
-1.037576536e-13
-5.010955059e-13
-2.431913807e-12
-1.190374807e-11
-5.890672049e-11
-2.953484314e-10
-1.498644401e-09
-7.669545157e-09
-3.919959267e-08
-1.976037704e-07
-9.637359205e-07
-4.470888893e-06
-1.937561251e-05
-7.818257948e-05
-1.372457026e-70
1.189246334e-69
-9.271777672e-69
2.246177982e-70
-7.777463243e-68
0
-4.704923553e-66
-6.65388036e-65
-4.521632921e-64
-3.712784988e-63
-2.363890693e-62
-1.354757298e-61
-7.277563727e-61
-3.221009207e-60
-1.46599679e-59
-5.971190359e-59
-2.63825887e-58
-1.187250409e-57
-5.530826933e-57
-2.359416783e-56
-1.018068107e-55
-3.916847224e-55
-1.493509796e-54
-5.307276238e-54
-1.940640944e-53
-7.465198834e-53
-3.089626903e-52
-1.241384138e-51
-5.007474924e-51
-1.867008904e-50
-6.282780552e-50
-1.615368001e-49
-9.279572252e-49
-3.278996903e-48
-1.01973019e-47
-2.914220035e-47
-8.397631722e-47
-2.83693193e-46
-1.06852858e-45
-4.432486667e-45
-1.716977102e-44
-6.731014948e-44
-3.04922191e-43
-1.62089315e-42
-2.992810452e-42
-8.419431409e-42
-2.565463854e-41
-7.146254092e-41
-1.672748842e-40
-2.90489064e-40
-7.89902308e-41
1.893773658e-39
9.70526554e-39
2.989883779e-38
6.878533915e-38
1.301876894e-37
3.274693071e-37
1.294379259e-36
5.381371319e-36
1.815526554e-35
4.953923591e-35
1.722284884e-34
7.476679131e-34
2.989596204e-33
1.012709198e-32
3.042109314e-32
8.212259369e-32
2.085290214e-31
5.546877651e-31
1.514351497e-30
4.203011282e-30
1.089776689e-29
2.800063571e-29
6.731233338e-29
2.01606382e-28
6.058278281e-28
1.805499962e-27
5.123875463e-27
1.336904077e-26
3.298965549e-26
8.299559202e-26
1.981131637e-25
4.172832625e-25
8.992082444e-25
2.339461594e-24
6.639812146e-24
1.774847738e-23
4.977258412e-23
1.800604366e-22
5.699965285e-22
9.619356661e-22
1.957413668e-21
3.817313439e-21
6.05559967e-21
8.86503374e-21
3.791625737e-22
-1.139313834e-19
-7.761056293e-19
-4.146665595e-18
-2.103389152e-17
-1.041555805e-16
-5.110540728e-16
-2.499702864e-15
-1.362572691e-14
-5.896759489e-14
-2.847993891e-13
-1.373912838e-12
-6.6397317e-12
-3.223577746e-11
-1.5776264e-10
-7.803902794e-10
-3.91079062e-09
-1.983486682e-08
-1.014663779e-07
-5.181791008e-07
-2.606812851e-06
-1.264986041e-05
-5.811630631e-05
-0.0002475527865
-0.0009731812941
-2.782253566e-70
2.315945413e-69
-3.289002905e-68
-4.980942745e-68
-5.806194138e-67
-2.04459181e-66
-2.392047463e-65
-2.473372185e-64
-1.573569055e-63
-1.079300292e-62
-6.46040008e-62
-3.931195239e-61
-2.059209235e-60
-8.965626106e-60
-4.075793933e-59
-1.639880159e-58
-7.436493479e-58
-3.326452724e-57
-1.527827862e-56
-6.67387663e-56
-2.806976804e-55
-1.120312857e-54
-4.293281878e-54
-1.543120141e-53
-5.798146199e-53
-2.203038097e-52
-9.042862136e-52
-3.675871735e-51
-1.454070126e-50
-5.432715107e-50
-1.885278081e-49
-7.265043425e-49
-2.636305647e-48
-8.648886507e-48
-2.599252582e-47
-7.303926674e-47
-2.242721856e-46
-8.074397567e-46
-3.347049811e-45
-1.328806708e-44
-5.192081362e-44
-1.99849538e-43
-7.884165106e-43
-2.727056152e-42
-8.454972977e-42
-2.699879244e-41
-8.472193362e-41
-2.37638754e-40
-5.82021654e-40
-1.064221679e-39
-1.016073649e-39
2.639541092e-39
1.524295582e-38
3.443408478e-38
1.133421242e-38
-1.473472035e-37
-5.067084197e-37
-1.152111636e-37
5.435162615e-36
1.566454762e-35
6.693438058e-35
4.114799563e-34
2.346705629e-33
1.037774795e-32
3.581001648e-32
1.076061991e-31
2.930466098e-31
7.858101953e-31
2.102446822e-30
5.705911988e-30
1.48254448e-29
3.763035737e-29
9.752057437e-29
2.33020181e-28
6.592657234e-28
2.105077605e-27
6.397131688e-27
1.679398836e-26
4.016585564e-26
9.835677615e-26
2.518089606e-25
6.043630037e-25
1.339260434e-24
3.287506858e-24
8.994151212e-24
2.315894893e-23
6.118458352e-23
1.779260341e-22
6.457141473e-22
1.381516801e-21
2.80049966e-21
5.847725134e-21
1.028960978e-20
1.256558065e-20
-1.686823432e-20
-2.776190348e-19
-1.802373689e-18
-9.856513095e-18
-5.089647278e-17
-2.559351757e-16
-1.273314521e-15
-6.296971516e-15
-3.093620857e-14
-1.509507353e-13
-7.325179902e-13
-3.541979894e-12
-1.709840645e-11
-8.262546769e-11
-4.008037522e-10
-1.958502344e-09
-9.667356846e-09
-4.832446864e-08
-2.444403953e-07
-1.247020855e-06
-6.348570362e-06
-3.180079577e-05
-0.0001531964137
-0.0006952751694
-0.002902088943
-0.01107438773
-1.779088205e-69
1.488374835e-69
-1.214655621e-67
-3.135629102e-67
-1.991197145e-66
-1.134207654e-65
-8.998261751e-65
-7.597546047e-64
-4.2245819e-63
-3.108427033e-62
-1.917694201e-61
-1.076949295e-60
-5.677840058e-60
-2.489544187e-59
-1.143266896e-58
-4.655528433e-58
-2.092834984e-57
-9.086347814e-57
-4.151764896e-56
-1.817720181e-55
-7.843000502e-55
-3.119886565e-54
-1.203870609e-53
-4.482512684e-53
-1.683461227e-52
-6.433478214e-52
-2.544534664e-51
-1.015117689e-50
-4.265245292e-50
-1.321747545e-49
-3.673213581e-49
-1.978309803e-48
-7.279858056e-48
-2.275349344e-47
-6.679173842e-47
-1.920764595e-46
-6.576071702e-46
-2.656756726e-45
-1.079334591e-44
-4.25745722e-44
-1.602648599e-43
-6.056557312e-43
-2.221102412e-42
-7.788928226e-42
-2.582734961e-41
-8.574960717e-41
-2.632928035e-40
-7.407106177e-40
-1.776090115e-39
-3.651653868e-39
-4.902152716e-39
-1.114642975e-39
3.767494583e-39
-5.123393857e-38
-4.063107473e-37
-1.645523735e-36
-4.786086487e-36
-8.049471581e-36
-1.047504682e-35
-6.63041103e-35
-7.233800089e-36
1.176080526e-33
8.300274128e-33
3.597415299e-32
1.217356604e-31
3.629672357e-31
1.022042842e-30
2.747698294e-30
7.243159986e-30
1.89891851e-29
4.98647653e-29
1.285176356e-28
3.3580819e-28
8.489342623e-28
2.317540058e-27
7.404898152e-27
2.088218725e-26
4.962842723e-26
1.141861524e-25
2.91294406e-25
7.650184722e-25
1.873604013e-24
4.548374742e-24
1.162339679e-23
2.910521013e-23
7.205334118e-23
1.935742775e-22
6.081283094e-22
1.908753856e-21
3.539660363e-21
7.313702776e-21
1.28977985e-20
1.14268192e-20
-6.533093707e-20
-6.469115263e-19
-3.971988908e-18
-2.159654946e-17
-1.128273305e-16
-5.767621555e-16
-2.912943551e-15
-1.45889894e-14
-7.244816695e-14
-3.568593412e-13
-1.745178615e-12
-8.483348948e-12
-4.105615756e-11