/*--------------------------------*- C++ -*----------------------------------*\
  =========                 |
  \\      /  F ield         | OpenFOAM: The Open Source CFD Toolbox
   \\    /   O peration     | Website:  https://openfoam.org
    \\  /    A nd           | Version:  7
     \\/     M anipulation  |
\*---------------------------------------------------------------------------*/
FoamFile
{
    version     2.0;
    format      ascii;
    class       volScalarField;
    location    "0.361";
    object      T;
}
// * * * * * * * * * * * * * * * * * * * * * * * * * * * * * * * * * * * * * //

dimensions      [0 0 0 1 0 0 0];

internalField   nonuniform List<scalar> 
35870
(
300
300
300
300
300
300
300
300
300
300
300
300
300
300
300
300
300
300
300
300
300
300
300
300
300
300
300
300
300
300
300
300
300
300
300
300
300
300
300
300
300
300
300
300
300
300
300
300
300
300
300
300
300
300
300
300
300
300
300
300
300
300
300
300
300
300
300
300
300
300
300
300
300
300
300
300
300
300
300
300
300
300
300
300
300
300
300
300
300
300
300
300
300
300
300
300
300
300
300
300
300
300
300
300
300
300
300
300
300
300
300
300
300
300
300
300
300
300
300
300
300
300
300
300
300
300
300
300
300
300
300
300
300
300
300
300
300
300
300
300
300
300
300
300
300
300
300
300
300
300
300
300
300
300
300
300
300
300
300
300
300
300
300
300
300
300
300
300
300
300
300
300
300
300
300
300
300
300
300
300
300
300
300
300
300
300
300
300
300
300
300
300
300
300
300
300
300
300
300
300
300
300
300
300
300
300
300
300
300
300
300
300
300
300
300
300
300
300
300
300
300
300
300
300
300
300
300
300
300
300
300
300
300
300
300
300
300
300
300
300
300
300
300
300
300
300
300
300
300
300
300
300
300
300
300
300
300
300
300
300
300
300
300
300
300
300
300
300
300
300
300
300
300
300
300
300
300
300
300
300
300
300
300
300
300
300
300
300
300
300
300
300
300
300
300
300
300
300
300
300
300
300
300
300
300
300
300
300
300
300
300
300
300
300
300
300
300
300
300
300
300
300
300
300
300
300
300
300
300
300
300
300
300
300
300
300
300
300
300
300
300
300
300
300
300
300
300
300
300
300
300
300
300
300
300
300
300
300
300
300.0000001
300
300
300
300
300
300
300
300
300
300
300
300
300
300
300
300
300
300
300
300
300
300
300
300
300
300
300
300
300
300
300
300
300
300
300
300
300
300
300
300
300
300
300
300
300
300
300
300
300
300
300
300
300
300
300
300
300
300
300
300
300
300
300
300
300
300
300
300
300
300
300
300
300
300
300
300
300
300
300
300
300
300
300
300
300
300
300
300
300
300
300
300
300
300
300
300
300
300
300
300
300
300
300
300
300
300
300
300
300
300
300
300
300
300
300
300
300
300.0000001
300.0000002
300.0000003
300
300
300
300
300
300
300
300
300
300
300
300
300
300
300
300
300
300
300
300
300
300
300
300
300
300
300
300
300
300
300
300
300
300
300
300
300
300
300
300
300
300
300
300
300
300
300
300
300
300
300
300
300
300
300
300
300
300
300
300
300
300
300
300
300
300
300
300
300
300
300
300
300
300
300
300
300
300
300
300
300
300
300
300
300
300
300
300
300
300
300
300
300
300
300
300
300
300
300
300
300
300
300
300
300
300
300
300
300
300
300
300
300
300
300
300.0000001
300.0000001
300.0000003
300.0000007
300.0000014
300
300
300
300
300
300
300
300
300
300
300
300
300
300
300
300
300
300
300
300
300
300
300
300
300
300
300
300
300
300
300
300
300
300
300
300
300
300
300
300
300
300
300
300
300
300
300
300
300
300
300
300
300
300
300
300
300
300
300
300
300
300
300
300
300
300
300
300
300
300
300
300
300
300
300
300
300
300
300
300
300
300
300
300
300
300
300
300
300
300
300
300
300
300
300
300
300
300
300
300
300
300
300
300
300
300
300
300
300
300
300
300
300
300.0000001
300.0000001
300.0000003
300.0000006
300.0000013
300.0000028
300.000006
300
300
300
300
300
300
300
300
300
300
300
300
300
300
300
300
300
300
300
300
300
300
300
300
300
300
300
300
300
300
300
300
300
300
300
300
300
300
300
300
300
300
300
300
300
300
300
300
300
300
300
300
300
300
300
300
300
300
300
300
300
300
300
300
300
300
300
300
300
300
300
300
300
300
300
300
300
300
300
300
300
300
300
300
300
300
300
300
300
300
300
300
300
300
300
300
300
300
300
300
300
300
300
300
300
300
300
300
300
300
300
300
300.0000001
300.0000002
300.0000005
300.0000012
300.0000025
300.0000055
300.0000118
300.0000249
300
300
300
300
300
300
300
300
300
300
300
300
300
300
300
300
300
300
300
300
300
300
300
300
300
300
300
300
300
300
300
300
300
300
300
300
300
300
300
300
300
300
300
300
300
300
300
300
300
300
300
300
300
300
300
300
300
300
300
300
300
300
300
300
300
300
300
300
300
300
300
300
300
300
300
300
300
300
300
300
300
300
300
300
300
300
300
300
300
300
300
300
300
300
300
300
300
300
300
300
300
300
300
300
300
300
300
300
300
300
300.0000001
300.0000002
300.0000004
300.0000009
300.0000021
300.0000048
300.0000105
300.000023
300.0000489
300.000102
300
300
300
300
300
300
300
300
300
300
300
300
300
300
300
300
300
300
300
300
300
300
300
300
300
300
300
300
300
300
300
300
300
300
300
300
300
300
300
300
300
300
300
300
300
300
300
300
300
300
300
300
300
300
300
300
300
300
300
300
300
300
300
300
300
300
300
300
300
300
300
300
300
300
300
300
300
300
300
300
300
300
300
300
300
300
300
300
300
300
300
300
300
300
300
300
300
300
300
300
300
300
300
300
300
300
300
300
300.0000001
300.0000002
300.0000003
300.0000008
300.0000017
300.0000038
300.0000086
300.0000194
300.000043
300.0000934
300.0001983
300.0004108
300
300
300
300
300
300
300
300
300
300
300
300
300
300
300
300
300
300
300
300
300
300
300
300
300
300
300
300
300
300
300
300
300
300
300
300
300
300
300
300
300
300
300
300
300
300
300
300
300
300
300
300
300
300
300
300
300
300
300
300
300
300
300
300
300
300
300
300
300
300
300
300
300
300
300
300
300
300
300
300
300
300
300
300
300
300
300
300
300
300
300
300
300
300
300
300
300
300
300
300
300
300
300
300
300
300
300.0000001
300.0000001
300.0000003
300.0000006
300.0000013
300.000003
300.0000067
300.0000152
300.0000344
300.0000773
300.0001714
300.0003721
300.0007858
300.0016135
300
300
300
300
300
300
300
300
300
300
300
300
300
300
300
300
300
300
300
300
300
300
300
300
300
300
300
300
300
300
300
300
300
300
300
300
300
300
300
300
300
300
300
300
300
300
300
300
300
300
300
300
300
300
300
300
300
300
300
300
300
300
300
300
300
300
300
300
300
300
300
300
300
300
300
300
300
300
300
300
300
300
300
300
300
300
300
300
300
300
300
300
300
300
300
300
300
300
300
300
300
300
300
300
300
300.0000001
300.0000002
300.0000005
300.000001
300.0000023
300.0000052
300.0000116
300.0000261
300.0000591
300.0001338
300.0003009
300.0006665
300.0014423
300.0030262
300.00615
300
300
300
300
300
300
300
300
300
300
300
300
300
300
300
300
300
300
300
300
300
300
300
300
300
300
300
300
300
300
300
300
300
300
300
300
300
300
300
300
300
300
300
300
300
300
300
300
300
300
300
300
300
300
300
300
300
300
300
300
300
300
300
300
300
300
300
300
300
300
300
300
300
300
300
300
300
300
300
300
300
300
300
300
300
300
300
300
300
300
300
300
300
300
300
300
300
300
300
300
300
300
300
300.0000001
300.0000002
300.0000004
300.0000008
300.0000018
300.0000039
300.0000087
300.0000194
300.0000436
300.0000985
300.0002232
300.0005054
300.0011361
300.0025114
300.0054123
300.0112688
300.0226301
300
300
300
300
300
300
300
300
300
300
300
300
300
300
300
300
300
300
300
300
300
300
300
300
300
300
300
300
300
300
300
300
300
300
300
300
300
300
300
300
300
300
300
300
300
300
300
300
300
300
300
300
300
300
300
300
300
300
300
300
300
300
300
300
300
300
300
300
300
300
300
300
300
300
300
300
300
300
300
300
300
300
300
300
300
300
300
300
300
300
300
300
300
300
300
300
300
300
300
300
300
300.0000001
300.0000001
300.0000003
300.0000006
300.0000013
300.000003
300.0000065
300.0000144
300.0000319
300.0000711
300.0001596
300.00036
300.0008155
300.0018451
300.0041421
300.0091287
300.0195669
300.0403662
300.0799667
300
300
300
300
300
300
300
300
300
300
300
300
300
300
300
300
300
300
300
300
300
300
300
300
300
300
300
300
300
300
300
300
300
300
300
300
300
300
300
300
300
300
300
300
300
300
300
300
300
300
300
300
300
300
300
300
300
300
300
300
300
300
300
300
300
300
300
300
300
300
300
300
300
300
300
300
300
300
300
300
300
300
300
300
300
300
300
300
300
300
300
300
300
300
300
300
300
300
300
300
300.0000001
300.0000002
300.0000004
300.000001
300.0000022
300.0000048
300.0000105
300.0000231
300.000051
300.000113
300.0002516
300.0005635
300.0012692
300.0028702
300.0064811
300.0145104
300.0318439
300.0677974
300.1383647
300.2698972
300
300
300
300
300
300
300
300
300
300
300
300
300
300
300
300
300
300
300
300
300
300
300
300
300
300
300
300
300
300
300
300
300
300
300
300
300
300
300
300
300
300
300
300
300
300
300
300
300
300
300
300
300
300
300
300
300
300
300
300
300
300
300
300
300
300
300
300
300
300
300
300
300
300
300
300
300
300
300
300
300
300
300
300
300
300
300
300
300
300
300
300
300
300
300
300
300
300
300.0000001
300.0000001
300.0000003
300.0000007
300.0000015
300.0000033
300.0000074
300.0000163
300.0000359
300.0000791
300.0001743
300.0003855
300.0008562
300.0019126
300.0042955
300.0096831
300.0217912
300.0485908
300.1060423
300.2239266
300.451343
300.8652182
300
300
300
300
300
300
300
300
300
300
300
300
300
300
300
300
300
300
300
300
300
300
300
300
300
300
300
300
300
300
300
300
300
300
300
300
300
300
300
300
300
300
300
300
300
300
300
300
300
300
300
300
300
300
300
300
300
300
300
300
300
300
300
300
300
300
300
300
300
300
300
300
300
300
300
300
300
300
300
300
300
300
300
300
300
300
300
300
300
300
300
300
300
300
300
300
300
300.0000001
300.0000002
300.0000004
300.000001
300.0000022
300.000005
300.000011
300.0000243
300.0000536
300.0001179
300.0002594
300.0005711
300.0012598
300.0027896
300.006208
300.0138836
300.0311536
300.0697659
300.1547001
300.3352381
300.701032
301.3930838
302.6193884
300
300
300
300
300
300
300
300
300
300
300
300
300
300
300
300
300
300
300
300
300
300
300
300
300
300
300
300
300
300
300
300
300
300
300
300
300
300
300
300
300
300
300
300
300
300
300
300
300
300
300
300
300
300
300
300
300
300
300
300
300
300
300
300
300
300
300
300
300
300
300
300
300
300
300
300
300
300
300
300
300
300
300
300
300
300
300
300
300
300
300
300
300
300
300
300.0000001
300.0000001
300.0000003
300.0000006
300.0000014
300.0000031
300.000007
300.0000155
300.0000345
300.0000763
300.0001681
300.0003699
300.0008125
300.0017844
300.0039244
300.0086551
300.0191673
300.0426264
300.0950615
300.2114888
300.4655658
301.000215
302.0678267
304.0444842
307.4451605
300
300
300
300
300
300
300
300
300
300
300
300
300
300
300
300
300
300
300
300
300
300
300
300
300
300
300
300
300
300
300
300
300
300
300
300
300
300
300
300
300
300
300
300
300
300
300
300
300
300
300
300
300
300
300
300
300
300
300
300
300
300
300
300
300
300
300
300
300
300
300
300
300
300
300
300
300
300
300
300
300
300
300
300
300
300
300
300
300
300
300
300
300
300
300.0000001
300.0000001
300.0000003
300.0000008
300.0000018
300.0000041
300.0000092
300.0000207
300.0000462
300.0001026
300.000227
300.0005005
300.0011
300.0024123
300.0052846
300.0115803
300.0254184
300.0559584
300.1235885
300.2734853
300.6034131
301.3163635
302.7989871
305.7107327
310.9747482
319.7356444
300
300
300
300
300
300
300
300
300
300
300
300
300
300
300
300
300
300
300
300
300
300
300
300
300
300
300
300
300
300
300
300
300
300
300
300
300
300
300
300
300
300
300
300
300
300
300
300
300
300
300
300
300
300
300
300
300
300
300
300
300
300
300
300
300
300
300
300
300
300
300
300
300
300
300
300
300
300
300
300
300
300
300
300
300
300
300
300
300
300
300
300
300
300.0000001
300.0000002
300.0000004
300.000001
300.0000022
300.000005
300.0000114
300.0000257
300.0000578
300.0001292
300.0002875
300.0006362
300.0014022
300.0030789
300.0067402
300.0147246
300.0321377
300.0701654
300.153423
300.3361065
300.7368888
301.6095786
303.4730298
307.294658
314.6553652
327.5990393
348.2826667
300
300
300
300
300
300
300
300
300
300
300
300
300
300
300
300
300
300
300
300
300
300
300
300
300
300
300
300
300
300
300
300
300
300
300
300
300
300
300
300
300
300
300
300
300
300
300
300
300
300
300
300
300
300
300
300
300
300
300
300
300
300
300
300
300
300
300
300
300
300
300
300
300
300
300
300
300
300
300
300
300
300
300
300
300
300
300
300
300
300
300
300
300.0000001
300.0000002
300.0000005
300.0000011
300.0000025
300.0000057
300.000013
300.0000296
300.000067
300.0001508
300.0003374
300.0007509
300.0016626
300.0036634
300.0080365
300.017562
300.0382572
300.0831536
300.1805204
300.3918236
300.8506355
301.8452188
303.982964
308.4810324
317.544087
334.5573764
363.3632678
406.8513786
300
300
300
300
300
300
300
300
300
300
300
300
300
300
300
300
300
300
300
300
300
300
300
300
300
300
300
300
300
300
300
300
300
300
300
300
300
300
300
300
300
300
300
300
300
300
300
300
300
300
300
300
300
300
300
300
300
300
300
300
300
300
300
300
300
300
300
300
300
300
300
300
300
300
300
300
300
300
300
300
300
300
300
300
300
300
300
300
300
300
300
300.0000001
300.0000002
300.0000005
300.0000011
300.0000025
300.0000059
300.0000136
300.0000312
300.000071
300.0001609
300.0003625
300.0008119
300.001808
300.0040041
300.0088212
300.0193354
300.0421836
300.0916439
300.1983836
300.4282272
300.9223951
301.9830636
304.2506161
309.0466024
318.9412031
338.3638692
373.4197451
429.5064692
507.9309983
300
300
300
300
300
300
300
300
300
300
300
300
300
300
300
300
300
300
300
300
300
300
300
300
300
300
300
300
300
300
300
300
300
300
300
300
300
300
300
300
300
300
300
300
300
300
300
300
300
300
300
300
300
300
300
300
300
300
300
300
300
300
300
300
300
300
300
300
300
300
300
300
300
300
300
300
300
300
300
300
300
300
300
300
300
300
300
300
300
300
300.0000001
300.0000002
300.0000004
300.000001
300.0000023
300.0000055
300.0000128
300.0000295
300.0000677
300.0001546
300.0003506
300.0007907
300.0017725
300.00395
300.0087516
300.0192786
300.0422302
300.0920029
300.1993943
300.430024
300.9232079
301.9735299
304.1997172
308.8814995
318.5742762
337.9958391
374.5772638
436.9339563
530.0183414
650.1203146
300
300
300
300
300
300
300
300
300
300
300
300
300
300
300
300
300
300
300
300
300
300
300
300
300
300
300
300
300
300
300
300
300
300
300
300
300
300
300
300
300
300
300
300
300
300
300
300
300
300
300
300
300
300
300
300
300
300
300
300
300
300
300
300
300
300
300
300
300
300
300
300
300
300
300
300
300
300
300
300
300
300
300
300
300
300
300
300
300
300.0000001
300.0000001
300.0000003
300.0000008
300.0000019
300.0000045
300.0000106
300.0000246
300.0000569
300.0001308
300.0002988
300.0006788
300.0015323
300.0034382
300.0076676
300.0169953
300.0374405
300.0819784
300.1784005
300.3858602
300.8294378
301.7717615
303.7593105
307.9133686
316.4743213
333.6870533
366.7715389
425.7684716
520.3456642
653.8586354
816.0611221
300
300
300
300
300
300
300
300
300
300
300
300
300
300
300
300
300
300
300
300
300
300
300
300
300
300
300
300
300
300
300
300
300
300
300
300
300
300
300
300
300
300
300
300
300
300
300
300
300
300
300
300
300
300
300
300
300
300
300
300
300
300
300
300
300
300
300
300
300
300
300
300
300
300
300
300
300
300
300
300
300
300
300
300
300
300
300
300
300
300.0000001
300.0000002
300.0000006
300.0000013
300.0000032
300.0000075
300.0000175
300.0000408
300.0000945
300.0002176
300.0004978
300.0011318
300.0025575
300.005743
300.0128157
300.0284183
300.062614
300.1370624
300.2980361
300.6436014
301.3797099
302.9341237
306.1819371
312.869901
326.337734
352.4929409
400.4537504
481.5322421
605.6647124
775.9041305
981.6878586
300
300
300
300
300
300
300
300
300
300
300
300
300
300
300
300
300
300
300
300
300
300
300
300
300
300
300
300
300
300
300
300
300
300
300
300
300
300
300
300
300
300
300
300
300
300
300
300
300
300
300
300
300
300
300
300
300
300
300
300
300
300
300
300
300
300
300
300
300
300
300
300
300
300
300
300
300
300
300
300
300
300
300
300
300
300
300
300
300.0000001
300.0000001
300.0000003
300.0000008
300.0000018
300.0000043
300.0000101
300.0000238
300.0000554
300.0001286
300.0002962
300.0006782
300.0015431
300.003489
300.0078392
300.0175012
300.0388201
300.085543
300.1872283
300.4069108
300.8777617
301.8779775
303.9801204
308.3373432
317.1954683
334.6887815
367.7394689
426.3216799
522.0855728
665.5049446
862.2055052
1111.015251
299.999983
299.9999609
299.9998464
299.9998703
299.999703
299.9997493
299.9997661
299.9997792
299.9998859
299.9999585
299.9999578
299.9999575
299.9999559
299.999958
299.9999464
299.9999611
299.9999696
299.9999717
299.999975
299.9999797
299.9999851
299.9999904
299.9999952
299.9999991
300.0000023
300.000005
300.0000073
300.0000093
300.0000112
300.0000131
300.0000151
300.000017
300.000019
300.0000208
300.0000227
300.0000244
300.0000261
300.0000277
300.0000293
300.0000308
300.0000322
300.0000333
300.0000343
300.000035
300.0000354
300.0000354
300.000035
300.0000341
300.0000327
300.0000307
300.0000283
300.0000253
300.0000217
300.0000177
300.0000133
300.0000088
300.0000042
299.9999999
299.999996
299.9999923
299.9999889
299.9999851
299.9999835
299.9999847
299.9999876
299.9999906
299.9999877
299.9999446
299.9999286
299.9999367
299.9999486
299.9999249
299.9998522
299.9998091
299.9998565
299.9999478
300.0000143
300.0000205
300.0000301
300.0000362
300.0000392
300.0000403
300.0000405
300.0000407
300.0000408
300.0000409
300.000041
300.0000409
300.0000407
300.0000405
300.0000402
300.0000399
300.0000397
300.0000393
300.0000389
300.0000385
300.0000381
300.0000378
300.0000383
300.000041
300.0000504
300.0000794
300.0001645
300.0004069
300.0010847
300.0029464
300.0079724
300.021306
300.0560391
300.1448007
300.3670457
300.911505
302.2133001
305.2389028
312.0239346
326.5135391
355.38902
407.9255739
494.663927
628.5526171
299.9999841
299.9999688
299.9998827
299.9998648
299.9997519
299.9997395
299.9997507
299.9997692
299.9998561
299.999958
299.9999602
299.9999592
299.9999576
299.9999583
299.9999564
299.9999507
299.999964
299.9999686
299.9999706
299.9999739
299.9999785
299.9999838
299.9999891
299.9999939
299.9999979
300.0000013
300.0000041
300.0000062
300.0000083
300.0000104
300.0000125
300.0000145
300.0000165
300.0000185
300.0000203
300.0000221
300.0000238
300.0000255
300.0000272
300.0000287
300.0000303
300.0000316
300.0000328
300.0000337
300.0000344
300.0000347
300.0000346
300.0000341
300.0000332
300.0000318
300.0000299
300.0000275
300.0000244
300.0000208
300.0000168
300.0000124
300.0000079
300.0000034
299.9999989
299.9999947
299.9999909
299.9999864
299.999983
299.9999818
299.9999825
299.9999839
299.9999682
299.9999384
299.9999089
299.9999014
299.9998898
299.9998645
299.9997758
299.9996784
299.9996338
299.9997353
299.999849
299.9998958
300.0000081
300.0000208
300.0000294
300.0000331
300.0000344
300.0000349
300.0000355
300.0000359
300.0000363
300.0000365
300.0000366
300.0000367
300.0000368
300.0000369
300.0000371
300.0000372
300.0000373
300.0000375
300.0000376
300.0000377
300.0000381
300.0000398
300.0000455
300.0000635
300.0001165
300.0002683
300.0006953
300.0018755
300.0050839
300.0136611
300.0361956
300.0943337
300.2414795
300.6064244
301.4918256
303.5870942
308.3972588
318.9938944
340.9481131
382.4583457
451.9938222
553.8200795
299.9999853
299.9999728
299.9999113
299.9998751
299.9997957
299.9997609
299.9997579
299.9997766
299.9998444
299.9999252
299.9999648
299.9999629
299.9999609
299.9999601
299.9999623
299.9999514
299.9999543
299.9999644
299.9999647
299.9999658
299.9999685
299.999973
299.9999785
299.9999843
299.9999894
299.9999941
299.999998
300.0000006
300.0000031
300.0000057
300.0000081
300.0000102
300.0000123
300.0000142
300.0000162
300.0000181
300.0000199
300.0000217
300.0000235
300.0000252
300.0000269
300.0000284
300.0000299
300.0000311
300.0000321
300.0000329
300.0000334
300.0000336
300.0000334
300.0000327
300.0000316
300.00003
300.0000277
300.0000249
300.0000216
300.0000177
300.0000134
300.0000088
300.000004
299.9999992
299.9999952
299.99999
299.9999846
299.9999802
299.9999698
299.9999551
299.9999382
299.9999143
299.9998771
299.9998555
299.9998259
299.9997708
299.9996371
299.9994549
299.9993183
299.9993416
299.9994508
299.999413
299.9996185
299.999845
300.0000053
300.0000165
300.0000206
300.0000222
300.0000231
300.0000239
300.0000246
300.0000252
300.0000257
300.0000262
300.0000269
300.0000278
300.0000289
300.00003
300.0000314
300.0000329
300.0000343
300.0000354
300.0000364
300.0000377
300.0000408
300.0000497
300.0000748
300.0001469
300.000351
300.0009198
300.0024808
300.0066973
300.0179038
300.0471895
300.1223871
300.3119249
300.7804259
301.9139883
304.5891707
310.700187
323.9847459
350.6209811
397.647741
467.8706786
299.9999869
299.9999756
299.9999255
299.9998832
299.9998222
299.9997836
299.999775
299.9997929
299.9998411
299.9999014
299.9999548
299.9999683
299.9999658
299.9999637
299.9999625
299.999954
299.9999478
299.999953
299.9999594
299.9999583
299.9999587
299.9999613
299.9999661
299.9999721
299.9999707
299.9999618
299.9999657
299.9999665
299.9999863
299.9999993
300.0000022
300.0000045
300.0000066
300.0000087
300.0000108
300.0000129
300.0000148
300.0000167
300.0000186
300.0000205
300.0000223
300.0000241
300.0000258
300.0000273
300.0000287
300.00003
300.0000311
300.0000319
300.0000324
300.0000326
300.0000324
300.0000317
300.0000304
300.0000286
300.0000261
300.0000231
300.0000194
300.0000151
300.0000105
300.0000055
300.0000014
299.9999957
299.999989
299.9999731
299.9999409
299.9999186
299.9999012
299.9998861
299.9998601
299.9998389
299.9998064
299.9997267
299.9995463
299.9992766
299.9990416
299.9989591
299.9990249
299.9991447
299.999354
299.9995779
299.9997708
299.9999154
299.9999981
300.0000009
300.0000018
300.0000022
300.0000026
300.0000031
300.0000035
300.0000041
300.0000052
300.0000069
300.0000093
300.0000119
300.0000154
300.0000198
300.0000241
300.0000277
300.0000305
300.0000328
300.0000355
300.0000403
300.0000509
300.0000799
300.0001609
300.0003878
300.0010165
300.0027346
300.0073612
300.0196304
300.0516483
300.1338282
300.3410834
300.854181
302.0973382
305.0286262
311.6601033
325.692541
352.2034669
394.8530052
299.9999877
299.9999729
299.9999309
299.9998881
299.9998395
299.9998039
299.9997979
299.9998124
299.9998485
299.999893
299.9999343
299.9999698
299.9999715
299.9999687
299.999966
299.9999545
299.9999303
299.9999242
299.999948
299.9999534
299.9999514
299.9999517
299.9999549
299.9999554
299.9999303
299.9999061
299.9998951
299.99989
299.9999096
299.9999546
299.9999947
299.9999974
299.9999998
300.0000021
300.0000044
300.0000066
300.0000087
300.0000107
300.0000127
300.0000147
300.0000167
300.0000187
300.0000206
300.0000224
300.0000241
300.0000258
300.0000274
300.0000288
300.0000301
300.000031
300.0000317
300.0000319
300.0000316
300.0000308
300.0000294
300.0000274
300.0000246
300.0000212
300.0000172
300.0000124
300.0000073
300.000001
299.9999962
299.9999683
299.9999275
299.9998979
299.9998784
299.9998641
299.9998532
299.9998376
299.9998016
299.9997031
299.9994788
299.9991222
299.9987454
299.9985238
299.9985199
299.9986654
299.9989058
299.9991758
299.9994292
299.9996395
299.999806
299.9999352
299.9999707
299.9999685
299.9999667
299.9999654
299.9999642
299.9999635
299.9999641
299.9999663
299.9999702
299.9999742
299.9999809
299.9999909
300.0000015
300.0000103
300.0000168
300.0000218
300.0000261
300.0000305
300.0000365
300.0000482
300.0000775
300.0001572
300.0003782
300.0009882
300.0026535
300.0071397
300.0190534
300.0502278
300.1305336
300.3339969
300.839463
302.0646191
304.923208
311.2173574
323.7929703
345.783441
299.9999902
299.9999692
299.999932
299.9998902
299.9998501
299.999821
299.9998164
299.9998273
299.9998557
299.9998888
299.9999206
299.9999467
299.9999724
299.999974
299.999971
299.9999492
299.9999005
299.9999121
299.9999468
299.9999526
299.9999484
299.9999462
299.9999473
299.9999313
299.9998902
299.9998472
299.999821
299.9998094
299.9998254
299.9998648
299.9999087
299.9999532
299.9999917
299.9999946
299.9999972
299.9999994
300.0000015
300.0000035
300.0000056
300.0000077
300.0000099
300.0000121
300.0000142
300.0000162
300.0000182
300.0000201
300.0000222
300.0000242
300.0000262
300.0000279
300.0000294
300.0000305
300.0000311
300.0000313
300.000031
300.00003
300.0000283
300.0000259
300.0000229
300.0000189
300.0000137
300.0000069
299.9999996
299.9999905
299.9999487
299.9999157
299.9998926
299.9998734
299.9998659
299.9998541
299.9998188
299.9997198
299.9994902
299.9991182
299.998718
299.9984436
299.9983636
299.9984473
299.9986373
299.9988837
299.9991436
299.999383
299.9995857
299.9997442
299.9998404
299.9999124
299.9999137
299.9999081
299.999903
299.9998989
299.9998973
299.9998432
299.9998012
299.9997515
299.9997695
299.9998753
299.9999624
299.9999808
299.9999937
300.0000025
300.0000093
300.0000154
300.0000216
300.0000291
300.0000414
300.0000689
300.0001406
300.000337
300.0008778
300.0023572
300.0063578
300.0170393
300.0451627
300.1181174
300.3038822
300.7659559
301.8735406
304.3903505
309.6349965
319.4390095
299.9999935
299.9999677
299.9999326
299.9998922
299.9998576
299.9998352
299.9998343
299.9998449
299.9998688
299.9998988
299.999926
299.9999455
299.9999686
299.9999787
299.9999759
299.9999249
299.9999131
299.9999393
299.9999602
299.9999548
299.999949
299.9999449
299.9999441
299.9999109
299.9998579
299.9998028
299.9997658
299.9997476
299.99976
299.9997984
299.9998475
299.9999027
299.9999557
299.9999878
299.99999
299.9999916
299.9999932
299.999995
299.9999968
299.999999
300.0000014
300.0000039
300.0000064
300.0000086
300.0000105
300.0000126
300.000015
300.0000177
300.0000204
300.0000232
300.0000256
300.0000276
300.0000291
300.0000302
300.0000308
300.0000309
300.0000303
300.000029
300.000027
300.0000239
300.0000194
300.0000132
300.0000057
299.9999972
299.9999881
299.9999778
299.9999506
299.9999234
299.999908
299.9998911
299.9998509
299.9997469
299.9995051
299.9990838
299.9985919
299.998205
299.9980345
299.998081
299.9982689
299.9985279
299.9988126
299.9990844
299.999324
299.999495
299.9995075
299.9995077
299.9995729
299.9996436
299.9996524
299.9995906
299.9994931
299.9994038
299.9993554
299.9993575
299.9994546
299.9996383
299.9998602
299.9999391
299.9999603
299.9999737
299.9999844
299.9999919
300.0000005
300.0000092
300.0000186
300.0000314
300.0000563
300.0001173
300.0002814
300.000733
300.0019738
300.0053538
300.0144516
300.0386172
300.1016702
300.2625101
300.6581175
301.5835039
303.583949
307.530543
299.9999973
299.9999677
299.9999303
299.9998877
299.9998592
299.9998429
299.9998479
299.9998616
299.9998828
299.9999096
299.9999354
299.9999324
299.9999528
299.9999735
299.9999797
299.9999574
299.9999549
299.9999688
299.9999644
299.9999579
299.999951
299.9999457
299.9999413
299.9998971
299.9998391
299.9997784
299.9997346
299.9997106
299.9997181
299.9997561
299.9998074
299.9998695
299.9999306
299.9999721
299.9999846
299.9999807
299.9999709
299.9999628
299.9999498
299.9999409
299.9999354
299.999934
299.9999314
299.9999298
299.9999404
299.9999726
300.0000056
300.0000085
300.000012
300.0000161
300.0000199
300.0000232
300.0000257
300.0000277
300.0000292
300.0000301
300.0000305
300.0000303
300.0000292
300.0000272
300.0000237
300.0000187
300.0000122
300.0000045
299.9999955
299.9999851
299.9999728
299.9999579
299.9999402
299.999919
299.9998934
299.9998096
299.9995628
299.9991302
299.9985798
299.9980611
299.9977392
299.9976926
299.9978791
299.9981989
299.9985539
299.9988692
299.999106
299.9992876
299.9993776
299.9993884
299.9993521
299.9992658
299.9991277
299.9989541
299.9987779
299.9986477
299.9986046
299.9986453
299.9987717
299.9989876
299.9993119
299.9996662
299.9999021
299.9999247
299.9999415
299.9999549
299.9999689
299.9999822
299.9999944
300.0000061
300.0000197
300.000042
300.0000924
300.0002247
300.000588
300.0015931
300.0043557
300.0118654
300.0319377
300.0844204
300.2168394
300.5354826
301.2490691
302.7260043
299.9999995
299.9999671
299.9999265
299.99988
299.9998523
299.9998425
299.999854
299.9998707
299.9998942
299.9999186
299.9999433
299.9999571
299.9999738
299.9999842
299.9999822
299.999979
299.9999762
299.9999726
299.9999671
299.99996
299.9999523
299.9999459
299.9999423
299.9998935
299.9998344
299.9997735
299.9997279
299.9996994
299.9996992
299.9997352
299.9997931
299.9998655
299.9999349
299.9999757
299.9999813
299.9999532
299.9999236
299.9999019
299.9998771
299.9998562
299.9998399
299.999826
299.9998039
299.9997801
299.9997816
299.9998165
299.9998826
299.9999461
299.9999998
300.0000056
300.000012
300.0000172
300.0000211
300.0000241
300.0000263
300.0000281
300.0000293
300.0000299
300.0000298
300.0000287
300.0000264
300.0000226
300.0000174
300.0000106
300.0000023
299.9999923
299.9999802
299.9999655
299.9999478
299.9999266
299.9999014
299.9998721
299.9996343
299.99915
299.9984874
299.9978093
299.9973408
299.997217
299.9974063
299.9977766
299.9982019
299.9985663
299.9988167
299.998933
299.9989294
299.9988335
299.99868
299.9984843
299.9982615
299.9980442
299.9978598
299.9977498
299.9977561
299.9978288
299.9980464
299.9982465
299.998518
299.9989143
299.99929
299.9995802
299.9997973
299.9999044
299.9999269
299.9999474
299.9999652
299.9999804
299.999994
300.0000081
300.0000282
300.0000696
300.0001743
300.000461
300.0012595
300.0034756
300.0095371
300.0257726
300.0677873
300.1717555
300.4127864
300.934573
299.9999995
299.9999641
299.9999209
299.9998716
299.9998446
299.9998425
299.99986
299.9998822
299.9999098
299.9999317
299.9999531
299.9999701
299.9999839
299.9999866
299.9999845
299.999982
299.999979
299.9999748
299.9999685
299.9999603
299.9999514
299.9999434
299.9999382
299.9998935
299.9998366
299.9997809
299.9997381
299.9997081
299.9997023
299.9997319
299.9997914
299.999833
299.9998876
299.9999336
299.9999449
299.9999177
299.9998833
299.9998593
299.9998321
299.9998026
299.999775
299.9997454
299.9997007
299.999644
299.9996198
299.9996564
299.9997355
299.9997581
299.9998281
299.9999544
300.0000024
300.0000103
300.0000159
300.0000198
300.0000228
300.0000251
300.000027
300.0000283
300.0000288
300.0000286
300.0000272
300.0000245
300.0000203
300.0000146
300.000007
299.9999977
299.9999861
299.9999721
299.9999553
299.9999353
299.9999121
299.9998852
299.9997103
299.9992705
299.9987067
299.9981244
299.9976605
299.9974178
299.9974082
299.9975748
299.9978308
299.9980898
299.9982899
299.998429
299.9984328
299.9982677