/*--------------------------------*- C++ -*----------------------------------*\
  =========                 |
  \\      /  F ield         | OpenFOAM: The Open Source CFD Toolbox
   \\    /   O peration     | Website:  https://openfoam.org
    \\  /    A nd           | Version:  7
     \\/     M anipulation  |
\*---------------------------------------------------------------------------*/
FoamFile
{
    version     2.0;
    format      ascii;
    class       volVectorField;
    location    "0.361";
    object      U;
}
// * * * * * * * * * * * * * * * * * * * * * * * * * * * * * * * * * * * * * //

dimensions      [0 1 -1 0 0 0 0];

internalField   nonuniform List<vector> 
35870
(
(2.118725867 5.016306647e-05 -1.60796648e-11)
(2.121401398 2.688796087e-05 4.308319314e-12)
(2.118749863 1.538325493e-05 -3.167514503e-11)
(2.120750567 1.204208342e-05 4.775788791e-11)
(2.118830869 6.595241636e-06 1.629283517e-11)
(2.120316365 7.590555138e-06 -1.588560392e-11)
(2.118905902 3.961605249e-06 2.38244864e-11)
(2.120001785 5.654639215e-06 -7.475418958e-12)
(2.118961388 2.904942922e-06 3.242797761e-11)
(2.119765068 4.501831781e-06 -3.164544806e-12)
(2.118997368 2.382676845e-06 8.915571296e-12)
(2.119582817 3.715207299e-06 -1.595768209e-11)
(2.119016887 2.085355229e-06 -7.334435485e-12)
(2.119440016 3.145633802e-06 -1.48431124e-11)
(2.119023397 1.895939683e-06 9.511706246e-12)
(2.1193264 2.718332535e-06 7.805553388e-12)
(2.119020047 1.762039922e-06 1.592621041e-12)
(2.119234686 2.390186334e-06 3.277131727e-12)
(2.119009497 1.659514504e-06 -5.04653621e-12)
(2.119159547 2.130837199e-06 7.514651407e-12)
(2.118993907 1.575805673e-06 -1.654888113e-11)
(2.119097049 1.925961166e-06 2.103729308e-11)
(2.118974906 1.504212845e-06 1.376787971e-12)
(2.11904424 1.760619379e-06 -1.13381059e-11)
(2.118953756 1.440585325e-06 4.744565017e-12)
(2.118998917 1.625343946e-06 -1.381139177e-11)
(2.118931394 1.38264669e-06 -2.217208643e-11)
(2.118959426 1.513462437e-06 -1.002423335e-12)
(2.118908507 1.329305581e-06 -2.305561717e-11)
(2.118924522 1.41995634e-06 -1.86143816e-11)
(2.118885579 1.280002731e-06 -1.282136171e-11)
(2.118893259 1.340462399e-06 -1.222875456e-11)
(2.118862952 1.234922458e-06 -5.513498209e-12)
(2.118864916 1.273029919e-06 -1.050423226e-11)
(2.118840832 1.191306133e-06 2.263433677e-12)
(2.11883897 1.214853543e-06 -1.534270375e-11)
(2.118819368 1.151908067e-06 1.065173151e-11)
(2.118814992 1.163993161e-06 9.180002456e-12)
(2.11879864 1.115036095e-06 8.322407985e-12)
(2.118792668 1.119333266e-06 5.252969529e-12)
(2.118778688 1.080680006e-06 4.078140888e-12)
(2.118771754 1.079488833e-06 4.283807986e-12)
(2.118759526 1.048608142e-06 2.232442005e-12)
(2.11875206 1.043727658e-06 5.214901386e-12)
(2.118741146 1.018665186e-06 1.621124213e-12)
(2.11873344 1.012082531e-06 8.05883374e-12)
(2.118723518 9.902624116e-07 -2.199079329e-12)
(2.118715782 9.829834266e-07 1.465455438e-11)
(2.118706623 9.646719023e-07 -9.172355401e-12)
(2.118698963 9.551818413e-07 7.201710049e-12)
(2.118690437 9.396711128e-07 8.501883971e-13)
(2.118682935 9.304607875e-07 1.403491535e-11)
(2.11867492 9.166417272e-07 -5.859276074e-12)
(2.118667623 9.073300947e-07 2.029661645e-11)
(2.118660037 8.95013754e-07 1.446967541e-12)
(2.118652971 8.85710483e-07 1.372313965e-11)
(2.118645759 8.739580059e-07 -6.788896493e-12)
(2.118638941 8.645976264e-07 2.512466e-12)
(2.11863206 8.536760371e-07 -8.575909315e-12)
(2.118625496 8.444108565e-07 -5.434556961e-12)
(2.118618923 8.338627721e-07 -4.992517892e-12)
(2.118612613 8.235215623e-07 -1.05044962e-12)
(2.118606336 8.138171339e-07 1.585871186e-11)
(2.118600279 8.02266423e-07 1.607454004e-11)
(2.11859429 7.896565964e-07 -3.814934062e-12)
(2.118588521 7.781645758e-07 -1.797264213e-12)
(2.118582821 7.635872515e-07 1.254828877e-11)
(2.118577368 7.47840694e-07 -4.176869136e-12)
(2.118571997 7.286598697e-07 3.325817907e-12)
(2.118566918 7.063509025e-07 -8.857868489e-12)
(2.118561949 6.786581058e-07 -8.278845529e-12)
(2.118557354 6.453915685e-07 -8.612154921e-12)
(2.118552922 6.033141197e-07 -3.337768226e-12)
(2.118549002 5.50908885e-07 -7.591921008e-12)
(2.118545336 4.823442405e-07 1.82450548e-12)
(2.118542419 3.988943664e-07 -7.703965418e-12)
(2.118539901 2.859940601e-07 -1.054306816e-11)
(2.118538525 1.452180414e-07 -3.837052459e-12)
(2.118537835 -3.6951362e-08 -9.354628323e-12)
(2.118538858 -2.689410521e-07 1.672749876e-13)
(2.118541071 -5.700961499e-07 8.553505766e-12)
(2.118545908 -9.524061013e-07 -1.680879699e-12)
(2.118552763 -1.44623394e-06 2.866062719e-12)
(2.118563665 -2.072709084e-06 -2.988951244e-11)
(2.118577937 -2.876249601e-06 -3.637544087e-11)
(2.118598454 -3.894323722e-06 5.268928525e-11)
(2.118624513 -5.190708398e-06 1.924861685e-11)
(2.118660181 -6.829742397e-06 1.276061461e-11)
(2.118704824 -8.900784607e-06 -3.731943398e-12)
(2.118764163 -1.151224345e-05 2.328884884e-11)
(2.118837822 -1.47844805e-05 -6.114805095e-11)
(2.118933772 -1.889742665e-05 -1.936487528e-11)
(2.119052244 -2.400608014e-05 -1.252026024e-11)
(2.119204195 -3.039740962e-05 4.072892536e-12)
(2.119390941 -3.827187554e-05 -5.969520265e-12)
(2.119627452 -4.806837265e-05 -6.30385624e-12)
(2.119916814 -6.001075348e-05 -6.220611967e-12)
(2.120279018 -7.477639444e-05 -5.221657345e-12)
(2.120720068 -9.257061933e-05 -4.951942393e-12)
(2.121265851 -0.0001144044153 -3.513542556e-12)
(2.121926823 -0.0001403657765 -3.554991994e-12)
(2.122735117 -0.0001719203801 -1.935145792e-12)
(2.123707647 -0.0002088434296 -2.532746717e-12)
(2.124881841 -0.0002531952661 -8.7025942e-13)
(2.126283516 -0.0003041008842 -1.982875562e-12)
(2.12795198 -0.0003643476466 -1.902635673e-13)
(2.129924646 -0.0004318931699 -1.657069603e-12)
(2.132235342 -0.0005103237025 -4.648051752e-13)
(2.134935655 -0.0005957623079 -9.523927927e-13)
(2.13804109 -0.0006926022152 -1.642539237e-12)
(2.141619858 -0.000794377292 -2.157576856e-12)
(2.14564988 -0.000906149318 -3.219131828e-12)
(2.150218271 -0.001018536386 -3.865854859e-12)
(2.155241875 -0.001136841483 -1.67349501e-12)
(2.160829436 -0.001249404205 -1.43310928e-11)
(2.166814073 -0.001360986781 3.819236979e-11)
(2.173331216 -0.001459949269 8.687953361e-11)
(2.180116684 -0.001549057569 4.32154787e-11)
(2.187342075 -0.001620905729 2.777324866e-11)
(2.194650981 -0.001673862662 1.193206944e-11)
(2.112217267 3.651641925e-05 -5.37045878e-11)
(2.115078027 3.342359072e-05 5.479992107e-12)
(2.112524656 2.341308214e-05 -6.970709354e-11)
(2.114584226 2.618102295e-05 -3.509976933e-11)
(2.112692877 1.437979147e-05 1.304334431e-11)
(2.114201427 2.011776505e-05 -4.435095115e-11)
(2.11280156 9.977542966e-06 7.40051609e-11)
(2.113909308 1.591101563e-05 -1.74009669e-11)
(2.1128739 7.739368713e-06 9.508372911e-11)
(2.113684846 1.29172825e-05 -2.386130558e-11)
(2.112919959 6.518604149e-06 2.064971167e-11)
(2.11351031 1.074145396e-05 -5.462580568e-11)
(2.112946201 5.797896661e-06 -2.053993742e-11)
(2.113372829 9.126386435e-06 -3.466552913e-11)
(2.112957517 5.331254348e-06 4.245298583e-11)
(2.113263114 7.901350501e-06 1.810109852e-11)
(2.112957773 4.997351626e-06 1.80313017e-12)
(2.113174387 6.952571043e-06 6.035063483e-12)
(2.112950031 4.738163576e-06 -1.268895527e-11)
(2.113101609 6.203413917e-06 1.635494336e-11)
(2.112936677 4.520978958e-06 -4.153979144e-11)
(2.113041031 5.608599811e-06 7.136369678e-11)
(2.112919505 4.332603516e-06 -1.627930757e-11)
(2.112989813 5.128529116e-06 -3.093001229e-11)
(2.112899873 4.162067671e-06 1.308834249e-11)
(2.112945831 4.735840743e-06 -5.338915687e-11)
(2.112878794 4.004387003e-06 -5.609368835e-11)
(2.112907486 4.410938405e-06 -1.92769368e-13)
(2.112857005 3.857353677e-06 -7.822478617e-11)
(2.112873574 4.13925826e-06 -4.771776512e-11)
(2.112835027 3.720135461e-06 -3.238319727e-11)
(2.112843176 3.90873155e-06 -3.025255424e-11)
(2.112813229 3.591863853e-06 -1.389835737e-11)
(2.112815603 3.713814776e-06 -2.550132653e-11)
(2.112791839 3.46992867e-06 4.653714124e-12)
(2.112790335 3.544434052e-06 -3.974426109e-11)
(2.112771028 3.357403046e-06 4.600250151e-11)
(2.112766967 3.39730534e-06 2.401743119e-11)
(2.112750884 3.252114476e-06 2.092387431e-11)
(2.112745193 3.26784962e-06 1.170974242e-11)
(2.11273146 3.153608274e-06 1.081078708e-11)
(2.112724779 3.152485485e-06 1.104898104e-11)
(2.112712777 3.061469467e-06 6.606587788e-12)
(2.112705542 3.049044335e-06 1.472135558e-11)
(2.112694835 2.975013559e-06 5.915574962e-12)
(2.112687342 2.95710443e-06 2.109291945e-11)
(2.112677608 2.892123263e-06 -2.681980106e-12)
(2.112670068 2.871371245e-06 3.846446738e-11)
(2.112661094 2.8196167e-06 -3.282993287e-11)
(2.112653606 2.79209006e-06 2.867246087e-11)
(2.11264525 2.746873352e-06 6.090486729e-12)
(2.112637913 2.719886996e-06 3.64401929e-11)
(2.112630055 2.679687622e-06 -1.405820929e-11)
(2.112622911 2.652704044e-06 6.650239857e-11)
(2.112615474 2.616610928e-06 -1.365678446e-12)
(2.112608552 2.589563408e-06 3.532860912e-11)
(2.112601479 2.555615505e-06 -2.712877872e-11)
(2.112594795 2.528451846e-06 8.549151276e-12)
(2.112588048 2.497092471e-06 -3.507741547e-11)
(2.112581609 2.469263156e-06 -1.297919649e-11)
(2.112575164 2.439399703e-06 -1.228903139e-11)
(2.112568969 2.409372367e-06 1.11996546e-11)
(2.112562813 2.37880313e-06 6.29669114e-11)
(2.112556874 2.348139751e-06 3.228728591e-11)
(2.112550991 2.312376792e-06 -2.513025836e-11)
(2.112545331 2.277077481e-06 9.216565782e-12)
(2.112539736 2.235152567e-06 3.579814859e-11)
(2.112534385 2.189349822e-06 -2.266100232e-11)
(2.112529113 2.133728574e-06 7.693835634e-12)
(2.112524131 2.069566315e-06 -3.418698206e-11)
(2.112519254 1.989676917e-06 -2.233605871e-11)
(2.11251475 1.894180819e-06 -2.043608735e-11)
(2.1125104 1.771690713e-06 -7.835171209e-12)
(2.112506565 1.621401426e-06 -1.860241147e-11)
(2.112502969 1.423558219e-06 8.013754766e-12)
(2.112500126 1.180717167e-06 -3.475859684e-11)
(2.112497675 8.59272269e-07 -2.883290231e-11)
(2.112496347 4.546308737e-07 -8.668774457e-12)
(2.112495702 -7.133009827e-08 -2.523031658e-11)
(2.112496755 -7.385726914e-07 2.003097587e-11)
(2.112498983 -1.605138379e-06 2.67890982e-11)
(2.112503813 -2.705183837e-06 -9.410879993e-12)
(2.112510638 -4.125267939e-06 -3.011132235e-11)
(2.112521475 -5.927362312e-06 2.651099289e-11)
(2.112535646 -8.238054287e-06 -3.713136785e-12)
(2.112556009 -1.116696125e-05 1.38792907e-11)
(2.112581857 -1.489528017e-05 -2.397187157e-12)
(2.11261723 -1.961131845e-05 1.233451231e-11)
(2.11266149 -2.556794425e-05 -5.360661704e-12)
(2.11272032 -3.308233274e-05 1.600469545e-11)
(2.112793334 -4.249437342e-05 -1.799715216e-12)
(2.112888448 -5.433223193e-05 7.549736515e-12)
(2.113005874 -6.903175527e-05 -1.074552586e-11)
(2.113156525 -8.742777021e-05 2.23229164e-11)
(2.113341624 -0.0001100880739 -2.743044344e-11)
(2.113576132 -0.0001382911321 -1.677182265e-11)
(2.113863012 -0.0001726693856 -1.600725457e-11)
(2.114222236 -0.0002151974016 -1.343450852e-11)
(2.114659636 -0.0002664455382 -1.264069299e-11)
(2.115201128 -0.000329365174 -8.440867495e-12)
(2.115856914 -0.0004041803672 -8.796560508e-12)
(2.116659256 -0.0004951750959 -4.051281935e-12)
(2.117624721 -0.0006016722391 -6.365460835e-12)
(2.118791049 -0.000729694478 -1.184692131e-12)
(2.120183599 -0.0008767009696 -5.212463743e-12)
(2.121842296 -0.001050832481 4.978735667e-13)
(2.123803995 -0.001246215473 -5.240041416e-12)
(2.126103563 -0.001473335786 5.435075294e-14)
(2.128792013 -0.001721046129 -4.467350257e-12)
(2.131886296 -0.002002160016 -6.300936277e-12)
(2.135454132 -0.002298233099 -7.971212715e-12)
(2.139475296 -0.002623825246 -1.125642767e-11)
(2.14403647 -0.002952303204 -9.387540892e-12)
(2.149056405 -0.003298624715 -1.683646462e-11)
(2.154643545 -0.003629853655 -2.488177058e-12)
(2.160632303 -0.003958854764 -3.494284492e-11)
(2.167157946 -0.004253058096 3.29978138e-11)
(2.173956267 -0.004518922287 2.042528492e-11)
(2.181198875 -0.004736251542 3.010976752e-11)
(2.18852777 -0.004898216545 -6.038506043e-12)
(2.098637651 1.901134204e-05 -8.648485295e-12)
(2.10154389 2.714842389e-05 -5.727657162e-12)
(2.099021301 1.963358904e-05 -7.089882686e-12)
(2.101123571 3.141849703e-05 -2.238533075e-11)
(2.099251627 1.561008425e-05 8.076262817e-12)
(2.100788261 2.793077879e-05 -2.301095196e-11)
(2.099399052 1.239290202e-05 1.78690409e-11)
(2.100525355 2.349702828e-05 -1.078208899e-11)
(2.099496072 1.04053048e-05 2.39484377e-11)
(2.100319799 1.966905968e-05 7.289034803e-12)
(2.099558779 9.22959072e-06 9.765170338e-12)
(2.100158276 1.664453867e-05 1.179896442e-12)
(2.09959687 8.508473677e-06 -1.222312153e-11)
(2.100030244 1.430074816e-05 5.585826974e-12)
(2.099616999 8.02560829e-06 -3.692347624e-11)
(2.099927695 1.247705842e-05 -1.592103132e-11)
(2.099624043 7.663424173e-06 -1.300950682e-11)
(2.099844588 1.104142957e-05 -6.007166111e-12)
(2.09962168 7.366506311e-06 -1.194535455e-11)
(2.099776337 9.896333237e-06 -1.237915578e-12)
(2.09961268 7.101862752e-06 -1.394503533e-11)
(2.099719486 8.979828858e-06 -3.247878664e-12)
(2.099599101 6.860530338e-06 1.203728366e-11)
(2.099671392 8.236322557e-06 -1.933533673e-11)
(2.099582484 6.631810781e-06 -1.180222035e-12)
(2.099630069 7.625668755e-06 -1.988684373e-11)
(2.09956397 6.412419924e-06 -2.394386478e-11)
(2.099594015 7.118799366e-06 -1.034113022e-11)
(2.099544389 6.201868613e-06 -1.61437819e-11)
(2.099562097 6.693792074e-06 -2.061284744e-11)
(2.099524333 6.00087187e-06 -2.946912889e-11)
(2.099533454 6.33288375e-06 -2.498240175e-11)
(2.099504221 5.808657971e-06 -1.28059213e-11)
(2.099507439 6.026893642e-06 -1.915818772e-11)
(2.099484327 5.625351269e-06 -5.300754257e-12)
(2.09948356 5.76015494e-06 -1.757238664e-11)
(2.099464851 5.452886891e-06 -3.569812916e-12)
(2.099461442 5.528381625e-06 -1.799851677e-12)
(2.099445909 5.2904016e-06 1.633707513e-11)
(2.099440801 5.323912467e-06 1.70052566e-12)
(2.099427574 5.137067759e-06 1.654812882e-11)
(2.09942142 5.141443053e-06 1.290620756e-11)
(2.099409883 4.992805244e-06 1.440394478e-11)
(2.099403129 4.977468492e-06 2.517734456e-11)
(2.09939285 4.856431916e-06 1.60796932e-11)
(2.099385797 4.83142667e-06 2.612645801e-11)
(2.099376467 4.726766764e-06 1.736117125e-11)
(2.099369322 4.69196119e-06 2.760783202e-11)
(2.099360728 4.610860969e-06 1.399843103e-11)
(2.099353611 4.569230631e-06 2.389713236e-11)
(2.099345606 4.494026056e-06 1.467080059e-11)
(2.099338613 4.452144167e-06 3.582830352e-11)
(2.099331085 4.387175962e-06 1.038529211e-11)
(2.099324263 4.344353613e-06 3.857243291e-11)
(2.099317135 4.285892703e-06 2.485339808e-11)
(2.099310515 4.242509934e-06 3.333101537e-11)
(2.099303734 4.187810517e-06 1.601256334e-11)
(2.099297335 4.144129598e-06 2.589470945e-11)
(2.099290864 4.093671852e-06 1.212408528e-11)
(2.099284692 4.04813669e-06 1.565651606e-11)
(2.099278509 4.000074056e-06 1.35546937e-11)
(2.099272566 3.951309874e-06 1.35262903e-11)
(2.099266658 3.900766144e-06 2.495117415e-11)
(2.09926096 3.852212646e-06 2.817172226e-11)
(2.099255309 3.793861605e-06 1.963925474e-11)
(2.099249877 3.735785741e-06 8.532650694e-12)
(2.099244503 3.666823477e-06 1.486986012e-11)
(2.099239366 3.591520291e-06 7.49777347e-12)
(2.099234302 3.499800528e-06 5.937414049e-12)
(2.09922952 3.394498937e-06 2.994406503e-12)
(2.099224836 3.262713349e-06 -2.395647109e-12)
(2.099220517 3.105570881e-06 -5.924549826e-12)
(2.099216342 2.902374381e-06 -4.86734513e-12)
(2.099212671 2.654037611e-06 -9.223449138e-12)
(2.099209227 2.327170961e-06 1.010207092e-12)
(2.099206519 1.923279359e-06 -4.16512613e-12)
(2.099204188 1.392919203e-06 -4.992597717e-12)
(2.099202954 7.235498446e-07 1.076296345e-12)
(2.099202379 -1.482786671e-07 -2.984160513e-12)
(2.099203463 -1.253299103e-06 1.942757121e-12)
(2.099205684 -2.68879826e-06 3.456222714e-12)
(2.099210448 -4.511189325e-06 8.636241741e-12)
(2.099217145 -6.863563181e-06 -4.816337486e-12)
(2.099227763 -9.849192622e-06 1.243846155e-11)
(2.099241618 -1.367742281e-05 -1.641926474e-11)
(2.099261521 -1.853072231e-05 -1.344825084e-11)
(2.099286754 -2.470870702e-05 -3.324972802e-11)
(2.099321294 -3.252442963e-05 1.604798899e-11)
(2.099364475 -4.239640578e-05 -9.948027097e-12)
(2.0994219 -5.485256016e-05 2.72103216e-11)
(2.099493122 -7.045398913e-05 1.818648819e-11)
(2.09958597 -9.007862456e-05 2.029491093e-11)
(2.099700523 -0.0001144657968 1.222834802e-11)
(2.099847622 -0.0001449690245 2.026100242e-11)
(2.100028277 -0.0001825594492 3.155982485e-12)
(2.100257369 -0.0002293618101 1.526236639e-11)
(2.10053755 -0.0002864271525 -1.408941424e-11)
(2.100888753 -0.0003570428497 -1.347246002e-11)
(2.101316354 -0.0004421827113 -1.131826477e-11)
(2.101846349 -0.0005467511397 -4.349985844e-12)
(2.102488289 -0.0006711708156 -6.700183445e-12)
(2.103274785 -0.0008225761251 1.572268638e-12)
(2.104221514 -0.0009999211025 -6.132005686e-12)
(2.105367062 -0.001213262377 5.594288472e-12)
(2.106735645 -0.001458479061 -7.244191608e-12)
(2.108368847 -0.001749216251 5.616216045e-12)
(2.110302157 -0.002075795159 -1.274535106e-11)
(2.112573249 -0.002455891269 7.702416982e-12)
(2.115231655 -0.002870933192 -2.740674173e-11)
(2.118298451 -0.003342649733 -2.163318062e-11)
(2.121839923 -0.003840048792 -2.647747851e-11)
(2.125841031 -0.004388020368 -2.38572562e-11)
(2.13038724 -0.00494134453 -2.708414056e-11)
(2.135402418 -0.005525931297 -2.69272036e-11)
(2.140994238 -0.00608518062 -2.427267461e-11)
(2.147000115 -0.00664193296 -3.059621662e-11)
(2.153555232 -0.007139295625 -2.698052303e-11)
(2.160394118 -0.007589800376 -2.072586946e-11)
(2.167689166 -0.007956898326 -2.465086354e-11)
(2.175076321 -0.008230806684 -1.276569902e-11)
(2.078256238 1.712199803e-05 2.685704557e-12)
(2.081178221 2.687738238e-05 -1.304015239e-11)
(2.078650961 1.645682025e-05 1.777760636e-11)
(2.080779148 3.420584275e-05 1.330072959e-12)
(2.078908975 1.39590851e-05 7.576264121e-12)
(2.08046876 3.241517495e-05 -4.578261516e-12)
(2.079081981 1.208785823e-05 2.030880451e-12)
(2.08022657 2.835736275e-05 -1.459772273e-12)
(2.079199368 1.096220945e-05 -3.354029864e-13)
(2.0800371 2.433299488e-05 7.879727072e-12)
(2.079277843 1.033093806e-05 -1.930671917e-12)
(2.079888031 2.093893377e-05 1.122583686e-11)
(2.079328205 9.964224729e-06 -8.023201304e-12)
(2.079769792 1.820851427e-05 1.022946202e-11)
(2.079358032 9.714135588e-06 -6.598138413e-12)
(2.079675101 1.603307256e-05 -1.20344645e-11)
(2.079372878 9.502937963e-06 -1.184239148e-11)
(2.079598423 1.429076919e-05 -1.279423456e-11)
(2.079376897 9.30087573e-06 -7.685225476e-12)
(2.079535523 1.28866633e-05 -1.357805406e-11)
(2.079373195 9.089237694e-06 -1.130296425e-12)
(2.079483192 1.175292104e-05 -2.082072847e-11)
(2.079364076 8.873143873e-06 1.560582159e-11)
(2.079438967 1.082749232e-05 -3.714207168e-11)
(2.079351263 8.648244011e-06 -9.922179556e-12)
(2.079400993 1.006362117e-05 -3.149890105e-11)
(2.079336029 8.417286246e-06 1.0879877e-11)
(2.079367868 9.426943033e-06 -3.998562277e-12)
(2.079319305 8.18433424e-06 8.035036391e-12)
(2.079338534 8.891150799e-06 -2.519125542e-11)
(2.079301762 7.953797576e-06 -3.940952821e-11)
(2.079312187 8.43481591e-06 1.281214759e-12)
(2.079283878 7.726662808e-06 -1.287525462e-12)
(2.079288231 8.047047812e-06 -6.322412034e-12)
(2.079265976 7.50606971e-06 -7.140029846e-12)
(2.079266206 7.707494226e-06 -3.893265444e-12)
(2.079248294 7.294619804e-06 -1.479533746e-11)
(2.079245772 7.411715837e-06 1.137882632e-11)
(2.079230978 7.092785396e-06 2.728786654e-11)
(2.079226666 7.149877587e-06 -1.074692694e-11)
(2.079214126 6.900024502e-06 4.361674287e-11)
(2.079208693 6.915505154e-06 1.402498256e-11)
(2.079197794 6.717080636e-06 4.051970205e-11)
(2.0791917 6.703921363e-06 3.988536389e-11)
(2.079182015 6.543414087e-06 2.244374352e-11)
(2.079175566 6.51289697e-06 3.702720376e-11)
(2.079166802 6.376741361e-06 3.573392599e-11)
(2.079160207 6.335314103e-06 2.02125711e-11)
(2.079152135 6.224801143e-06 4.047079951e-11)
(2.079145544 6.172606248e-06 2.585336966e-11)
(2.079138028 6.074163124e-06 4.005342555e-11)
(2.07913152 6.020069309e-06 3.878906698e-11)
(2.079124455 5.934228301e-06 3.110360289e-11)
(2.079118087 5.878561041e-06 5.803820219e-11)
(2.079111397 5.800922981e-06 2.986479492e-11)
(2.079105204 5.744029697e-06 2.37413122e-11)
(2.079098837 5.671601099e-06 3.493175492e-11)
(2.079092841 5.614015553e-06 4.009614685e-11)
(2.079086763 5.547069655e-06 1.839983354e-11)
(2.079080972 5.48629968e-06 4.185252518e-11)
(2.079075162 5.422406856e-06 2.522671532e-11)
(2.079069581 5.357868365e-06 3.687317718e-11)
(2.079064027 5.288980697e-06 3.965146695e-11)
(2.079058673 5.22512611e-06 2.38145491e-11)
(2.079053356 5.146898037e-06 1.395767621e-11)
(2.079048251 5.067604397e-06 -2.233773564e-12)
(2.079043194 4.974381559e-06 -2.336724346e-13)
(2.079038365 4.872190595e-06 8.142522352e-12)
(2.079033599 4.747540479e-06 3.695473211e-14)
(2.079029106 4.604702804e-06 1.474372207e-11)
(2.0790247 4.425137901e-06 -8.051169033e-12)
(2.079020646 4.210740612e-06 -1.406741692e-12)
(2.079016724 3.932675793e-06 -8.359681319e-12)
(2.079013289 3.592891566e-06 4.334481598e-12)
(2.079010064 3.145957047e-06 1.213156051e-11)
(2.079007551 2.592541892e-06 -1.138781454e-12)
(2.079005391 1.866999482e-06 1.741481408e-11)
(2.07900429 9.505421257e-07 1.491487811e-11)
(2.079003813 -2.438062249e-07 1.152022718e-11)
(2.079004938 -1.757647492e-06 9.622139327e-12)
(2.079007143 -3.724733536e-06 8.61558132e-12)
(2.079011803 -6.221966463e-06 6.147391027e-12)
(2.079018306 -9.445626745e-06 1.211216608e-11)
(2.079028595 -1.353759913e-05 -5.343627671e-12)
(2.079041972 -1.878498912e-05 -2.681155e-12)
(2.07906119 -2.543813449e-05 2.259909727e-11)
(2.079085503 -3.390840036e-05 -7.951614269e-13)
(2.079118805 -4.462438653e-05 1.043400407e-11)
(2.079160377 -5.816389467e-05 -2.518012925e-12)
(2.079215712 -7.52461757e-05 1.018131309e-11)
(2.079284261 -9.665616094e-05 2.466474673e-12)
(2.079373746 -0.0001235801001 2.007866523e-11)
(2.079484018 -0.0001570525458 2.818724853e-11)
(2.079625815 -0.0001989401851 6.790499034e-12)
(2.079799867 -0.0002505774996 4.611189493e-12)
(2.080020871 -0.000314883377 7.348622991e-12)
(2.080291063 -0.0003933534847 9.63245778e-12)
(2.080630283 -0.0004904961904 -3.405175508e-12)
(2.081043235 -0.0006077256337 1.229925562e-11)
(2.081556013 -0.0007517942967 1.31123654e-11)
(2.082177195 -0.0009234064746 4.438454213e-12)
(2.082939885 -0.001132424467 1.326528878e-11)
(2.083858417 -0.001377594726 -3.460550983e-12)
(2.084972613 -0.001672884833 1.998021764e-11)
(2.086304947 -0.002012864495 -1.971231142e-11)
(2.087899466 -0.002416601175 6.935201121e-12)
(2.089789562 -0.002871000692 -2.90264986e-11)
(2.092017149 -0.003400957296 -5.918723655e-12)
(2.094629418 -0.003980884927 -2.77123314e-11)
(2.097653836 -0.004641712021 -2.906918693e-11)
(2.101154346 -0.005340060098 -5.497901328e-11)
(2.105124086 -0.006111829614 -3.14209007e-11)
(2.109646477 -0.006892640707 -5.531179355e-11)
(2.114653677 -0.007720638632 -3.518052199e-11)
(2.120251961 -0.008513626638 -5.271681344e-11)
(2.126283896 -0.0093064648 -4.608412457e-11)
(2.132884366 -0.01001435777 -4.036525811e-11)
(2.139786205 -0.01065869977 -3.941095395e-11)
(2.147163113 -0.01118189306 -4.616468984e-11)
(2.154641243 -0.01157456167 -2.106046517e-11)
(2.051082433 1.428938269e-05 -9.005193012e-13)
(2.054023732 2.619381404e-05 -1.322705932e-12)
(2.051477663 1.338519985e-05 -6.457193245e-13)
(2.0536261 3.652438871e-05 2.815245804e-12)
(2.051744477 1.173977086e-05 -4.713588866e-13)
(2.053323442 3.577060826e-05 2.051466128e-14)
(2.051930022 1.071578728e-05 -4.793286284e-12)
(2.053091118 3.186144701e-05 2.294786038e-12)
(2.05206014 1.035085669e-05 -7.696193699e-12)
(2.052911362 2.769577294e-05 7.006763061e-12)
(2.052150091 1.03414056e-05 -8.205056602e-12)
(2.052771051 2.408100764e-05 1.289236022e-11)
(2.052210346 1.045492113e-05 -1.121595453e-11)
(2.05266047 2.112271781e-05 1.903570479e-11)
(2.052248582 1.056240729e-05 -1.788731852e-11)
(2.05257242 1.873548482e-05 -1.683727694e-11)
(2.052270564 1.061140517e-05 -1.226401078e-11)
(2.052501501 1.680643875e-05 -1.371590442e-11)
(2.052280667 1.059607534e-05 -5.367023835e-12)
(2.052443619 1.524044703e-05 -1.486411319e-11)
(2.05228218 1.051487734e-05 5.477742273e-13)
(2.052395683 1.396990725e-05 -1.540896921e-11)
(2.05227757 1.038769159e-05 4.613556494e-12)
(2.052355334 1.292826457e-05 -1.336629237e-11)
(2.052268688 1.021968065e-05 -3.363428202e-12)
(2.052320802 1.206534239e-05 -1.530851287e-11)
(2.052256909 1.0021693e-05 -5.353219976e-12)
(2.052290753 1.134384512e-05 -8.593081382e-12)
(2.052243247 9.803908278e-06 -1.745605234e-12)
(2.052264183 1.073491878e-05 -5.398025186e-12)
(2.052228436 9.575718568e-06 -1.273460741e-11)
(2.052240336 1.021497277e-05 -1.111117157e-11)
(2.052213009 9.341036826e-06 -6.547008469e-12)
(2.05221865 9.77206531e-06 -7.202987054e-12)
(2.05219733 9.106661121e-06 -5.082407029e-12)
(2.052198701 9.382446534e-06 -5.440577101e-12)
(2.052181673 8.876208258e-06 -3.578255854e-12)
(2.052180171 9.042135307e-06 -7.471444645e-12)
(2.052166212 8.652347274e-06 8.029786956e-12)
(2.052162823 8.739677944e-06 -4.611164951e-12)
(2.05215107 8.435241248e-06 9.976690809e-12)
(2.052146478 8.468002761e-06 6.263231476e-12)
(2.05213632 8.226685685e-06 1.06296366e-11)
(2.052131 8.221160168e-06 1.738919627e-11)
(2.052122014 8.027774e-06 1.655104339e-11)
(2.05211628 7.995985705e-06 1.832543611e-11)
(2.052108177 7.83386394e-06 2.177553466e-11)
(2.052102244 7.790446207e-06 1.827352224e-11)
(2.0520948 7.654641912e-06 2.088497524e-11)
(2.052088829 7.595884773e-06 2.136277149e-11)
(2.052081905 7.478454924e-06 2.073632955e-11)
(2.052075981 7.415545633e-06 2.571150571e-11)
(2.052069476 7.312433358e-06 1.980740805e-11)
(2.052063659 7.246987485e-06 2.617158366e-11)
(2.0520575 7.153310986e-06 2.54572782e-11)
(2.052051829 7.08582413e-06 2.374398478e-11)
(2.052045969 6.998575882e-06 1.977302064e-11)
(2.052040466 6.929782279e-06 2.500881361e-11)
(2.05203487 6.848744186e-06 1.834882912e-11)
(2.052029549 6.775505088e-06 2.243952953e-11)
(2.052024198 6.698000477e-06 2.002085417e-11)
(2.052019064 6.619106073e-06 2.06676585e-11)
(2.052013948 6.535830575e-06 2.352635595e-11)
(2.052009021 6.458494934e-06 2.226774848e-11)
(2.052004119 6.361449226e-06 2.087975263e-11)
(2.05199942 6.264260809e-06 1.798954869e-11)
(2.051994758 6.148830106e-06 1.246346513e-11)
(2.051990313 6.022599523e-06 1.426680877e-11)
(2.051985921 5.868054374e-06 9.287501657e-12)
(2.051981787 5.69090104e-06 1.23642275e-11)
(2.051977728 5.467197507e-06 8.786847969e-12)
(2.051974005 5.199598076e-06 8.283806912e-12)
(2.051970399 4.851978509e-06 5.339520535e-12)
(2.051967256 4.427320458e-06 4.245955539e-12)
(2.051964304 3.868198032e-06 7.127602452e-12)
(2.051962031 3.175019947e-06 4.802938509e-12)
(2.05196008 2.267216738e-06 5.988039914e-12)
(2.051959139 1.11980125e-06 8.269548836e-12)
(2.051958776 -3.767004514e-07 7.274714179e-12)
(2.051959939 -2.273475893e-06 8.938306627e-12)
(2.051962106 -4.738944948e-06 6.073571414e-12)
(2.051966615 -7.868620269e-06 9.62444885e-12)
(2.051972843 -1.190951171e-05 2.872889696e-12)
(2.051982679 -1.703934033e-05 1.423922283e-11)
(2.051995407 -2.361887975e-05 -7.870860904e-12)
(2.052013699 -3.196151883e-05 -3.527974776e-12)
(2.052036773 -4.258537425e-05 -2.314863495e-11)
(2.052068414 -5.602597832e-05 1.054574568e-11)
(2.052107828 -7.301543242e-05 -6.604133128e-12)
(2.052160368 -9.444826376e-05 1.606351802e-11)
(2.052225346 -0.0001213321403 1.203221687e-11)
(2.052310312 -0.0001551309808 1.410336091e-11)
(2.052414881 -0.0001971773216 1.316232247e-11)
(2.052549596 -0.0002498191931 1.683588091e-11)
(2.052714791 -0.0003147500363 8.115533298e-12)
(2.052924977 -0.0003956376473 1.868602974e-11)
(2.053181784 -0.0004944451711 7.138298302e-13)
(2.05350493 -0.00061682824 5.611958343e-13)
(2.053898214 -0.0007646999454 7.297191937e-13)
(2.054387834 -0.0009465713303 4.571496662e-12)
(2.054981057 -0.001163549843 1.811710292e-12)
(2.055711601 -0.00142812823 7.521423771e-12)
(2.056591988 -0.00173906402 6.733527155e-13)
(2.057663633 -0.002114162368 9.621737878e-12)
(2.058946645 -0.002547026999 -9.013474928e-13)
(2.060488316 -0.003062166166 9.023711483e-12)
(2.062319149 -0.00364351411 -5.496167379e-12)
(2.06448679 -0.004323393601 9.567650333e-12)
(2.067035137 -0.00506962085 -1.345816546e-11)
(2.07000046 -0.005922879886 -1.149412751e-11)
(2.073443353 -0.006827353113 -1.671042692e-11)
(2.077368503 -0.007831111681 -1.375226342e-11)
(2.081856274 -0.008849340367 -1.775573229e-11)
(2.086850944 -0.009934449394 -1.537378645e-11)
(2.092456527 -0.01097519844 -1.763920244e-11)
(2.098523609 -0.01202168947 -1.70477214e-11)
(2.105186377 -0.0129550654 -1.996673973e-11)
(2.112175717 -0.01381013993 -1.568631686e-11)
(2.119667355 -0.01450059203 -2.205722663e-11)
(2.127273121 -0.0150223446 -1.287128242e-11)
(2.017114905 1.550870046e-05 -7.214228105e-12)
(2.020081341 2.829666062e-05 8.806437451e-12)
(2.017509813 1.264304097e-05 -1.118327741e-11)
(2.019680489 3.971495904e-05 4.363125737e-12)
(2.017779999 1.02713119e-05 -1.232352802e-11)
(2.019378251 3.89661431e-05 -1.795610932e-12)
(2.017971554 9.332111332e-06 -8.085739632e-12)
(2.01914881 3.476304658e-05 3.17497543e-12)
(2.018108826 9.37014684e-06 -9.973954221e-12)
(2.018973237 3.029630393e-05 7.52985148e-12)
(2.018206054 9.828353351e-06 -8.516099319e-12)
(2.018837612 2.643501445e-05 1.395654083e-11)
(2.018273187 1.037058926e-05 -1.023685868e-11)
(2.018731767 2.328136365e-05 2.069162651e-11)
(2.018317695 1.083347782e-05 -1.71702095e-11)
(2.018648279 2.073910812e-05 -9.835992469e-12)
(2.018345308 1.116459521e-05 -7.073602431e-12)
(2.018581635 1.868195587e-05 -6.09399823e-12)
(2.018360429 1.136736044e-05 -3.924464889e-12)
(2.018527719 1.701445806e-05 -9.036654031e-12)
(2.018366405 1.145049388e-05 4.51356897e-12)
(2.018483428 1.566028138e-05 -8.956383954e-12)
(2.018365772 1.144578361e-05 4.048589868e-12)
(2.018446427 1.454918486e-05 -1.158550897e-11)
(2.018360453 1.136594629e-05 1.310032288e-12)
(2.018414971 1.362792701e-05 -7.814813579e-12)
(2.018351881 1.12295358e-05 -5.205303465e-12)
(2.018387752 1.285686446e-05 -9.269774336e-12)
(2.018341121 1.105279287e-05 -3.555654624e-12)
(2.018363792 1.220524055e-05 -7.93082211e-12)
(2.018328952 1.085038439e-05 -2.682759616e-12)
(2.018342355 1.164763168e-05 -1.148297765e-11)