/*--------------------------------*- C++ -*----------------------------------*\
  =========                 |
  \\      /  F ield         | OpenFOAM: The Open Source CFD Toolbox
   \\    /   O peration     | Website:  https://openfoam.org
    \\  /    A nd           | Version:  7
     \\/     M anipulation  |
\*---------------------------------------------------------------------------*/
FoamFile
{
    version     2.0;
    format      ascii;
    class       volScalarField;
    location    "0.361";
    object      Y_C2H3;
}
// * * * * * * * * * * * * * * * * * * * * * * * * * * * * * * * * * * * * * //

dimensions      [0 0 0 0 0 0 0];

internalField   nonuniform List<scalar> 
35870
(
-2.688602915e-85
-2.669383066e-84
-1.779467357e-83
-9.791132261e-83
-4.803419111e-82
-2.188190421e-81
-9.483571962e-81
-3.967639883e-80
-1.616403364e-79
-6.443555023e-79
-2.520239765e-78
-9.684981579e-78
-3.659775938e-77
-1.3605177e-76
-4.977572772e-76
-1.792787839e-75
-6.359140674e-75
-2.222219345e-74
-7.654113855e-74
-2.599826345e-73
-8.713571757e-73
-2.883703154e-72
-9.431145549e-72
-3.051047247e-71
-9.774444851e-71
-3.105021542e-70
-9.795903355e-70
-3.074886574e-69
-9.624062439e-69
-3.011076308e-68
-9.444065499e-68
-2.978723659e-67
-9.478838994e-67
-3.05287243e-66
-9.979016591e-66
-3.317073945e-65
-1.12237552e-64
-3.86525057e-64
-1.353222258e-63
-4.806979557e-63
-1.728438975e-62
-6.275128322e-62
-2.294701514e-61
-8.433473915e-61
-3.108952952e-60
-1.147617769e-59
-4.235242016e-59
-1.560372426e-58
-5.731178526e-58
-2.095750905e-57
-7.619777246e-57
-2.751008618e-56
-9.850363269e-56
-3.493974147e-55
-1.226403686e-54
-4.255821927e-54
-1.45886905e-53
-4.936724431e-53
-1.648237463e-52
-5.427367474e-52
-1.762129716e-51
-5.640464537e-51
-1.78002324e-50
-5.538975083e-50
-1.699948237e-49
-5.147579361e-49
-1.53862821e-48
-4.542234712e-48
-1.325215575e-47
-3.823726109e-47
-1.091916616e-46
-3.088300091e-46
-8.657542163e-46
-2.407198941e-45
-6.642553177e-45
-1.82004575e-44
-4.953592041e-44
-1.339556663e-43
-3.599684496e-43
-9.612746683e-43
-2.5509053e-42
-6.726256086e-42
-1.762201898e-41
-4.587029118e-41
-1.18638229e-40
-3.049308783e-40
-7.790655958e-40
-1.97923732e-39
-5.002216754e-39
-1.258281675e-38
-3.151789466e-38
-7.865012475e-38
-1.956016532e-37
-4.849546573e-37
-1.198830583e-36
-2.955017747e-36
-7.262197864e-36
-1.779053094e-35
-4.342871911e-35
-1.055952015e-34
-2.556006958e-34
-6.155783188e-34
-1.474183148e-33
-3.508667162e-33
-8.296316197e-33
-1.948663969e-32
-4.547976587e-32
-1.055667728e-31
-2.441113297e-31
-5.638608607e-31
-1.305731942e-30
-3.044826402e-30
-7.180932207e-30
-1.718313134e-29
-4.174126685e-29
-1.026672745e-28
-2.542723197e-28
-6.300976903e-28
-1.556014108e-27
-3.844878129e-27
-5.403044221e-85
-5.322824412e-84
-3.520121848e-83
-1.923692029e-82
-9.39009693e-82
-4.264220036e-81
-1.845389666e-80
-7.718896979e-80
-3.14669943e-79
-1.255842588e-78
-4.919055102e-78
-1.893326629e-77
-7.16630348e-77
-2.668483411e-76
-9.779143281e-76
-3.528047818e-75
-1.253521231e-74
-4.387891966e-74
-1.513968769e-73
-5.151615359e-73
-1.729851688e-72
-5.736208505e-72
-1.880032756e-71
-6.096200542e-71
-1.958024242e-70
-6.237912216e-70
-1.974395286e-69
-6.220677787e-69
-1.95539076e-68
-6.148316542e-68
-1.939497529e-67
-6.157800046e-67
-1.974229579e-66
-6.41151961e-66
-2.114729662e-65
-7.096554853e-65
-2.424643674e-64
-8.430911207e-64
-2.979330006e-63
-1.067744996e-62
-3.871257544e-62
-1.4163631e-61
-5.216727765e-61
-1.930140117e-60
-7.160162417e-60
-2.658703823e-59
-9.866605884e-59
-3.654233248e-58
-1.348821207e-57
-4.955164316e-57
-1.809391169e-56
-6.558689113e-56
-2.357090267e-55
-8.388986199e-55
-2.953665552e-54
-1.027848509e-53
-3.532391283e-53
-1.198113816e-52
-4.008644529e-52
-1.322544756e-51
-4.301707845e-51
-1.379280645e-50
-4.359793912e-50
-1.35879992e-49
-4.176831417e-49
-1.266820314e-48
-3.792960349e-48
-1.121746509e-47
-3.279103288e-47
-9.481450465e-47
-2.713834467e-46
-7.695065858e-46
-2.163124559e-45
-6.03232589e-45
-1.669847886e-44
-4.590529615e-44
-1.253694045e-43
-3.402171484e-43
-9.174817837e-43
-2.458761198e-42
-6.547635039e-42
-1.732462788e-41
-4.554350057e-41
-1.189515086e-40
-3.086967446e-40
-7.961539155e-40
-2.041255467e-39
-5.204845992e-39
-1.320487416e-38
-3.335006369e-38
-8.389013161e-38
-2.102665136e-37
-5.253256601e-37
-1.308551272e-36
-3.250154866e-36
-8.049309685e-36
-1.987400403e-35
-4.890610243e-35
-1.198995118e-34
-2.92708279e-34
-7.111537752e-34
-1.718464007e-33
-4.127617344e-33
-9.849741948e-33
-2.334360893e-32
-5.494647505e-32
-1.285109209e-31
-2.990189126e-31
-6.935903255e-31
-1.608960984e-30
-3.748100062e-30
-8.810714295e-30
-2.099137144e-29
-5.082936332e-29
-1.250344689e-28
-3.112520866e-28
-7.787793816e-28
-1.944476676e-27
-4.822673925e-27
-1.192615192e-26
-1.588482338e-84
-1.548829769e-83
-1.013761649e-82
-5.492249779e-82
-2.664245552e-81
-1.205310835e-80
-5.207451673e-80
-2.177921171e-79
-8.886754728e-79
-3.552064748e-78
-1.393886687e-77
-5.375653841e-77
-2.038866559e-76
-7.607627939e-76
-2.793698434e-75
-1.009963511e-74
-3.595855975e-74
-1.261352069e-73
-4.361440358e-73
-1.487373121e-72
-5.006058107e-72
-1.664117878e-71
-5.468644929e-71
-1.778419172e-70
-5.730451065e-70
-1.832206956e-69
-5.822964846e-69
-1.843228841e-68
-5.82527185e-68
-1.843074686e-67
-5.855880214e-67
-1.874518226e-66
-6.065582398e-66
-1.990028932e-65
-6.635999277e-65
-2.252461305e-64
-7.78529309e-64
-2.738010287e-63
-9.781700724e-63
-3.541824542e-62
-1.296502536e-61
-4.78584679e-61
-1.777338006e-60
-6.626816512e-60
-2.476114812e-59
-9.25682294e-59
-3.457267755e-58
-1.288169074e-57
-4.781702072e-57
-1.765955893e-56
-6.480190587e-56
-2.359638905e-55
-8.515680556e-55
-3.042377118e-54
-1.074924765e-53
-3.752504506e-53
-1.293331685e-52
-4.398199373e-52
-1.475065075e-51
-4.877274862e-51
-1.589620949e-50
-5.106703238e-50
-1.617172428e-49
-5.049327442e-49
-1.55495099e-48
-4.724975346e-48
-1.417488708e-47
-4.201004589e-47
-1.230857853e-46
-3.567908147e-46
-1.02402575e-45
-2.91230688e-45
-8.213202653e-45
-2.298396397e-44
-6.385821395e-44
-1.7622812e-43
-4.832010329e-43
-1.316572338e-42
-3.564881179e-42
-9.592066152e-42
-2.564515143e-41
-6.812113326e-41
-1.797700769e-40
-4.713261133e-40
-1.227862566e-39
-3.179133414e-39
-8.183788927e-39
-2.095477422e-38
-5.339691762e-38
-1.354822099e-37
-3.424486848e-37
-8.626561961e-37
-2.166421378e-36
-5.42485726e-36
-1.354534496e-35
-3.372133057e-35
-8.368130343e-35
-2.069219545e-34
-5.096024099e-34
-1.249281085e-33
-3.046584342e-33
-7.386030393e-33
-1.779011675e-32
-4.255139164e-32
-1.010412016e-31
-2.382399885e-31
-5.581676869e-31
-1.30149695e-30
-3.027889455e-30
-7.055146861e-30
-1.654082101e-29
-3.922562e-29
-9.448906855e-29
-2.316972132e-28
-5.773458961e-28
-1.454336325e-27
-3.673778836e-27
-9.232370197e-27
-2.296490068e-26
-5.673918165e-26
-5.256737093e-84
-5.067638257e-83
-3.280786827e-82
-1.761636078e-81
-8.492569502e-81
-3.8282367e-80
-1.651591392e-79
-6.90808688e-79
-2.821780182e-78
-1.129684257e-77
-4.441432969e-77
-1.716303564e-76
-6.522885399e-76
-2.438868922e-75
-8.974463449e-75
-3.251047482e-74
-1.159888527e-73
-4.077171215e-73
-1.412819497e-72
-4.828852303e-72
-1.629061143e-71
-5.428860532e-71
-1.788855366e-70
-5.834609216e-70
-1.8862135e-69
-6.053100955e-69
-1.931829309e-68
-6.144581843e-68
-1.952712173e-67
-6.217939788e-67
-1.990193403e-66
-6.424448863e-66
-2.098454441e-65
-6.95593168e-65
-2.345112998e-64
-8.050765814e-64
-2.814438193e-63
-1.000847911e-62
-3.613610177e-62
-1.321498194e-61
-4.882314625e-61
-1.817755118e-60
-6.804712024e-60
-2.556107608e-59
-9.617898394e-59
-3.619341727e-58
-1.360178687e-57
-5.097686562e-57
-1.902686782e-56
-7.063057305e-56
-2.604178994e-55
-9.524470275e-55
-3.451207135e-54
-1.237570653e-53
-4.387293427e-53
-1.536270489e-52
-5.309605353e-52
-1.810191267e-51
-6.085046665e-51
-2.016297652e-50
-6.584662996e-50
-2.119327997e-49
-6.723637797e-49
-2.103115894e-48
-6.48841218e-48
-1.975344465e-47
-5.937901916e-47
-1.763613541e-46
-5.17938501e-46
-1.505222549e-45
-4.332323546e-45
-1.235891913e-44
-3.497016185e-44
-9.820907077e-44
-2.738860914e-43
-7.587872457e-43
-2.088845676e-42
-5.714464359e-42
-1.553552267e-41
-4.196859553e-41
-1.126472872e-40
-3.003799309e-40
-7.957152064e-40
-2.094138913e-39
-5.476344383e-39
-1.423455361e-38
-3.679123763e-38
-9.46037978e-38
-2.421425838e-37
-6.172543646e-37
-1.567816087e-36
-3.969438728e-36
-1.002015999e-35
-2.522193468e-35
-6.330262149e-35
-1.583891632e-34
-3.949569922e-34
-9.810815671e-34
-2.426326459e-33
-5.970469805e-33
-1.460750876e-32
-3.551046198e-32
-8.571726466e-32
-2.053655874e-31
-4.882669433e-31
-1.152450701e-30
-2.703002596e-30
-6.312630553e-30
-1.472409576e-29
-3.44525164e-29
-8.128669842e-29
-1.944528205e-28
-4.734763171e-28
-1.174986245e-27
-2.962654354e-27
-7.540945768e-27
-1.91994792e-26
-4.847704537e-26
-1.207191186e-25
-2.974547279e-25
-1.826079279e-83
-1.738590354e-82
-1.112552344e-81
-5.919342332e-81
-2.836068607e-80
-1.27409748e-79
-5.490230811e-79
-2.297070101e-78
-9.394332537e-78
-3.767321636e-77
-1.484007731e-76
-5.746207908e-76
-2.188346044e-75
-8.198820129e-75
-3.023141173e-74
-1.097387772e-73
-3.923275186e-73
-1.381980007e-72
-4.799191606e-72
-1.643990616e-71
-5.559307073e-71
-1.857333318e-70
-6.136876208e-70
-2.007671153e-69
-6.512238681e-69
-2.097790815e-68
-6.724008229e-68
-2.149344464e-67
-6.869710594e-67
-2.201994041e-66
-7.101635093e-66
-2.312247422e-65
-7.625322809e-65
-2.554093596e-64
-8.706104971e-64
-3.02269304e-63
-1.068608293e-62
-3.841595887e-62
-1.401391811e-61
-5.17453903e-61
-1.928954247e-60
-7.241766512e-60
-2.732021703e-59
-1.033720939e-58
-3.916212876e-58
-1.483233353e-57
-5.608062561e-57
-2.113848979e-56
-7.932315918e-56
-2.95939414e-55
-1.096230641e-54
-4.026581311e-54
-1.464795983e-53
-5.271543136e-53
-1.874930717e-52
-6.584858375e-52
-2.281985295e-51
-7.799060024e-51
-2.627599386e-50
-8.724758576e-50
-2.854819495e-49
-9.205552854e-49
-2.925776134e-48
-9.168162482e-48
-2.833717799e-47
-8.643631774e-47
-2.603616642e-46
-7.750174084e-46
-2.281600392e-45
-6.64840372e-45
-1.919122589e-44
-5.492113822e-44
-1.559342332e-43
-4.395178785e-43
-1.230424477e-42
-3.422330769e-42
-9.459277643e-42
-2.598278855e-41
-7.092244281e-41
-1.923553917e-40
-5.183111052e-40
-1.38739587e-39
-3.689160533e-39
-9.745736271e-39
-2.558357632e-38
-6.676099681e-38
-1.732615938e-37
-4.474390253e-37
-1.150434028e-36
-2.946569523e-36
-7.521321042e-36
-1.91397781e-35
-4.856502174e-35
-1.228757499e-34
-3.099624114e-34
-7.793555363e-34
-1.952398997e-33
-4.870593591e-33
-1.209198586e-32
-2.98545285e-32
-7.324626226e-32
-1.784482082e-31
-4.314274696e-31
-1.03469468e-30
-2.461499322e-30
-5.812110613e-30
-1.363894303e-29
-3.188826521e-29
-7.454951456e-29
-1.751521582e-28
-4.158775767e-28
-1.00353706e-27
-2.469343861e-27
-6.197903837e-27
-1.579783541e-26
-4.0581114e-26
-1.039945502e-25
-2.63439661e-25
-6.557444135e-25
-1.60862345e-24
-6.488282675e-83
-6.093823788e-82
-3.851815088e-81
-2.030159533e-80
-9.667778223e-80
-4.329517238e-79
-1.863895027e-78
-7.802303078e-78
-3.195214248e-77
-1.283612827e-76
-5.06631198e-76
-1.965706538e-75
-7.501438701e-75
-2.816222323e-74
-1.04054415e-73
-3.784862364e-73
-1.355929739e-72
-4.786359065e-72
-1.665779176e-71
-5.71916048e-71
-1.938631505e-70
-6.49353109e-70
-2.151560982e-69
-7.060553417e-69
-2.298130019e-68
-7.431911799e-68
-2.392777391e-67
-7.687886456e-67
-2.471784789e-66
-7.977238591e-66
-2.592913763e-65
-8.517177017e-65
-2.836356747e-64
-9.600980165e-64
-3.308997879e-63
-1.161813139e-62
-4.153027249e-62
-1.508966686e-61
-5.560208486e-61
-2.072407155e-60
-7.793042602e-60
-2.949471118e-59
-1.121148824e-58
-4.272268173e-58
-1.629370004e-57
-6.210127011e-57
-2.362051945e-56
-8.953355491e-56
-3.377512157e-55
-1.266284404e-54
-4.712012381e-54
-1.738047362e-53
-6.347027798e-53
-2.292199438e-52
-8.178675397e-52
-2.880711735e-51
-1.000937482e-50
-3.429069813e-50
-1.157837473e-49
-3.852360037e-49
-1.262945976e-48
-4.07994381e-48
-1.29905562e-47
-4.078069049e-47
-1.262809227e-46
-3.85948363e-46
-1.164994773e-45
-3.475781218e-45
-1.025817105e-44
-2.997394446e-44
-8.678375165e-44
-2.491709263e-43
-7.099492661e-43
-2.008548314e-42
-5.644851985e-42
-1.576375133e-41
-4.374802975e-41
-1.206558983e-40
-3.306659528e-40
-9.0037134e-40
-2.435478509e-39
-6.543972449e-39
-1.746630956e-38
-4.631560032e-38
-1.220519599e-37
-3.197678207e-37
-8.333408277e-37
-2.161512677e-36
-5.583281406e-36
-1.436951593e-35
-3.686320672e-35
-9.428830593e-35
-2.404809627e-34
-6.115558345e-34
-1.550349037e-33
-3.916566098e-33
-9.854804329e-33
-2.468273456e-32
-6.149307941e-32
-1.522678548e-31
-3.744362396e-31
-9.13713834e-31
-2.21118688e-30
-5.305122366e-30
-1.261997595e-29
-2.979160972e-29
-6.990904961e-29
-1.63569347e-28
-3.831986739e-28
-9.039832016e-28
-2.160153762e-27
-5.257871479e-27
-1.307049097e-26
-3.315992407e-26
-8.536753557e-26
-2.210952252e-25
-5.696910831e-25
-1.446211371e-24
-3.593083851e-24
-8.759250909e-24
-2.327105242e-82
-2.153453277e-81
-1.343598262e-80
-7.013938251e-80
-3.320209054e-79
-1.482584896e-78
-6.378372418e-78
-2.671875767e-77
-1.095805601e-76
-4.410267278e-76
-1.744178253e-75
-6.781168571e-75
-2.593120022e-74
-9.75510228e-74
-3.611698524e-73
-1.31640777e-72
-4.725880561e-72
-1.671749675e-71
-5.830846907e-71
-2.006503816e-70
-6.818030574e-70
-2.2897092e-69
-7.608400493e-69
-2.504670093e-68
-8.181353471e-68
-2.656414181e-67
-8.592014971e-67
-2.775238553e-66
-8.977603737e-66
-2.917832826e-65
-9.560614044e-65
-3.168947522e-64
-1.065841794e-63
-3.646402789e-63
-1.270693767e-62
-4.511391073e-62
-1.630298558e-61
-5.985534529e-61
-2.227229963e-60
-8.377368905e-60
-3.176987433e-59
-1.211917248e-58
-4.640770169e-58
-1.780702229e-57
-6.83580814e-57
-2.621524185e-56
-1.002946997e-55
-3.822623765e-55
-1.449477035e-54
-5.460488845e-54
-2.040975784e-53
-7.55909782e-53
-2.770797728e-52
-1.004080057e-51
-3.59372538e-51
-1.269355841e-50
-4.421818643e-50
-1.518391757e-49
-5.137920156e-49
-1.712908173e-48
-5.626160103e-48
-1.820842724e-47
-5.808002843e-47
-1.826602471e-46
-5.666923558e-46
-1.735436208e-45
-5.249794002e-45
-1.569986996e-44
-4.645579508e-44
-1.36129197e-43
-3.953653783e-43
-1.138998912e-42
-3.257032359e-42
-9.249797168e-42
-2.609887111e-41
-7.317903695e-41
-2.039184506e-40
-5.646865149e-40
-1.553754276e-39
-4.247292125e-39
-1.153283412e-38
-3.110482466e-38
-8.333228986e-38
-2.218098034e-37
-5.867888318e-37
-1.543560595e-36
-4.039729535e-36
-1.052515878e-35
-2.73150722e-35
-7.064564731e-35
-1.821510699e-34
-4.683001754e-34
-1.200521114e-33
-3.068335292e-33
-7.816070219e-33
-1.983496577e-32
-5.011596398e-32
-1.259850834e-31
-3.148525149e-31
-7.81568996e-31
-1.925358848e-30
-4.703310893e-30
-1.138602688e-29
-2.731050548e-29
-6.492228606e-29
-1.531364183e-28
-3.591761682e-28
-8.407417048e-28
-1.973527207e-27
-4.674813699e-27
-1.124334405e-26
-2.760238139e-26
-6.929670053e-26
-1.7759873e-25
-4.614774837e-25
-1.2042385e-24
-3.117690355e-24
-7.923586005e-24
-1.961901362e-23
-4.742525799e-23
-8.355027693e-82
-7.608285196e-81
-4.682685241e-80
-2.420784231e-79
-1.139316606e-78
-5.074212976e-78
-2.18215119e-77
-9.149139227e-77
-3.758257702e-76
-1.515445254e-75
-6.005429125e-75
-2.339630961e-74
-8.965133513e-74
-3.379492752e-73
-1.253776123e-72
-4.579200651e-72
-1.647335503e-71
-5.839730873e-71
-2.041317217e-70
-7.040821038e-70
-2.398348578e-69
-8.075852125e-69
-2.691327258e-68
-8.888485824e-68
-2.913947095e-67
-9.50051936e-67
-3.087488679e-66
-1.002729985e-65
-3.264250839e-65
-1.06863991e-64
-3.530503247e-64
-1.181047932e-63
-4.012505211e-63
-1.387490512e-62
-4.888623417e-62
-1.754814317e-61
-6.409567956e-61
-2.37726491e-60
-8.930474655e-60
-3.388928288e-59
-1.295812347e-58
-4.981134796e-58
-1.921162976e-57
-7.421696676e-57
-2.867340569e-56
-1.106298592e-55
-4.256760073e-55
-1.631184518e-54
-6.216477667e-54
-2.352902217e-53
-8.832746416e-53
-3.284433898e-52
-1.208311812e-51
-4.393230939e-51
-1.577137078e-50
-5.58593463e-50
-1.950714661e-49
-6.713735514e-49
-2.276556317e-48
-7.604588676e-48
-2.502430659e-47
-8.113476061e-47
-2.592636608e-46
-8.168740592e-46
-2.539164998e-45
-7.791861341e-45
-2.362324157e-44
-7.081914018e-44
-2.101154867e-43
-6.175153359e-43
-1.79924502e-42
-5.201420872e-42
-1.492887076e-41
-4.25621004e-41
-1.205740465e-40
-3.394602227e-40
-9.497990687e-40
-2.640806316e-39
-7.295110816e-39
-2.001898865e-38
-5.456452298e-38
-1.477147116e-37
-3.972188104e-37
-1.061312139e-36
-2.818665947e-36
-7.444979448e-36
-1.956892533e-35
-5.121797891e-35
-1.33559307e-34
-3.471490441e-34
-8.996482605e-34
-2.324827667e-33
-5.990127223e-33
-1.538516336e-32
-3.93742944e-32
-1.003534023e-31
-2.545444191e-31
-6.420413462e-31
-1.608930291e-30
-4.002011182e-30
-9.871266232e-30
-2.412546985e-29
-5.838907036e-29
-1.399277705e-28
-3.32205287e-28
-7.825465513e-28
-1.833820957e-27
-4.293451553e-27
-1.00981228e-26
-2.402120676e-26
-5.815222292e-26
-1.439755055e-25
-3.649007982e-25
-9.442559728e-25
-2.475328335e-24
-6.505888805e-24
-1.691432766e-23
-4.299315785e-23
-1.058938333e-22
-2.531232025e-22
-2.984349225e-81
-2.67085455e-80
-1.620546134e-79
-8.295842841e-79
-3.882727879e-78
-1.725334182e-77
-7.418805246e-77
-3.113849282e-76
-1.2812551e-75
-5.176441511e-75
-2.055506119e-74
-8.024385921e-74
-3.081127773e-73
-1.163824124e-72
-4.326532319e-72
-1.583426748e-71
-5.708122111e-71
-2.027823557e-70
-7.104133633e-70
-2.456052316e-69
-8.387060499e-69
-2.83177443e-68
-9.465116443e-68
-3.136336046e-67
-1.032037127e-66
-3.379133526e-66
-1.103524468e-65
-3.604162212e-65
-1.180925716e-64
-3.894954448e-64
-1.297683232e-63
-4.381967221e-63
-1.503939901e-62
-5.256487784e-62
-1.872406924e-61
-6.794386658e-61
-2.507786751e-60
-9.393728905e-60
-3.561650209e-59
-1.363235919e-58
-5.254362631e-58
-2.034909589e-57
-7.903551814e-57
-3.073490216e-56
-1.194884169e-55
-4.637599083e-55
-1.794454127e-54
-6.912679865e-54
-2.64746585e-53
-1.006656842e-52
-3.795004459e-52
-1.416656812e-51
-5.230266572e-51
-1.907787484e-50
-6.868897621e-50
-2.439313732e-49
-8.539178608e-49
-2.945428732e-48
-1.000811337e-47
-3.349529777e-47
-1.104249903e-46
-3.586668317e-46
-1.148170947e-45
-3.624289852e-45
-1.1287676e-44
-3.471073538e-44
-1.054759006e-43
-3.169962276e-43
-9.431093793e-43
-2.780160752e-42
-8.127333516e-42
-2.357897929e-41
-6.793121159e-41
-1.944361573e-40
-5.530510704e-40
-1.563422408e-39
-4.392261886e-39
-1.226124504e-38
-3.400418851e-38
-9.367053879e-38
-2.562697188e-37
-6.96337416e-37
-1.879500717e-36
-5.040908678e-36
-1.344086326e-35
-3.564951115e-35
-9.411678009e-35
-2.474790748e-34
-6.484864702e-34
-1.694041586e-33
-4.412641691e-33
-1.146120827e-32
-2.967861983e-32
-7.65930337e-32
-1.969017152e-31
-5.039031232e-31
-1.282754448e-30
-3.245278483e-30
-8.151512939e-30
-2.030760139e-29
-5.012751543e-29
-1.225014199e-28
-2.962252249e-28
-7.088367499e-28
-1.679744463e-27
-3.949702812e-27
-9.244817161e-27
-2.164709456e-26
-5.101828754e-26
-1.218940227e-25
-2.970404087e-25
-7.415159656e-25
-1.896466304e-24
-4.952891299e-24
-1.3094886e-23
-3.465535837e-23
-9.042239484e-23
-2.29554703e-22
-5.610597854e-22
-1.321453956e-21
-1.055166437e-80
-9.268427696e-80
-5.540711257e-79
-2.808690961e-78
-1.307667641e-77
-5.799607411e-77
-2.494144068e-76
-1.048156958e-75
-4.320477704e-75
-1.748976151e-74
-6.959163163e-74
-2.722308231e-73
-1.047415272e-72
-3.96437863e-72
-1.476752531e-71
-5.415666236e-71
-1.956364244e-70
-6.96489788e-70
-2.445476665e-69
-8.474454545e-69
-2.90120934e-68
-9.822404292e-68
-3.293040758e-67
-1.094861166e-66
-3.616502353e-66
-1.189297779e-65
-3.903401007e-65
-1.282260379e-64
-4.229484632e-64
-1.4056455e-63
-4.723608982e-63
-1.61026739e-62
-5.583434211e-62
-1.972447457e-61
-7.102459294e-61
-2.604837048e-60
-9.713048231e-60
-3.673511853e-59
-1.405368515e-58
-5.424112126e-58
-2.106908018e-57
-8.219040513e-57
-3.21412723e-56
-1.257987471e-55
-4.920713724e-55
-1.920934241e-54
-7.473655436e-54
-2.893919071e-53
-1.113686393e-52
-4.253599106e-52
-1.610195594e-51
-6.033546558e-51
-2.235264521e-50
-8.178911918e-50
-2.953158897e-49
-1.051448342e-48
-3.689412701e-48
-1.275340764e-47
-4.342088904e-47
-1.455957827e-46
-4.808603376e-46
-1.564648392e-45
-5.017805165e-45
-1.58686684e-44
-4.952013977e-44
-1.526056698e-43
-4.648127256e-43
-1.400556766e-42
-4.178740596e-42
-1.235690217e-41
-3.624608469e-41
-1.055401368e-40
-3.052317515e-40
-8.771397473e-40
-2.505097415e-39
-7.110682858e-39
-2.005772288e-38
-5.621495923e-38
-1.565057625e-37
-4.327516641e-37
-1.188337849e-36
-3.240853675e-36
-8.780048212e-36
-2.363881968e-35
-6.328238688e-35
-1.685566197e-34
-4.46996767e-34
-1.180936008e-33
-3.109764446e-33
-8.16483812e-33
-2.137660737e-32
-5.580379355e-32
-1.452124236e-31
-3.76501601e-31
-9.72061634e-31
-2.497268482e-30
-6.378219573e-30
-1.617949374e-29
-4.071788809e-29
-1.015502402e-28
-2.507228494e-28
-6.123150985e-28
-1.478518671e-27
-3.530652324e-27
-8.34693916e-27
-1.958402498e-26
-4.577644678e-26
-1.072028696e-25
-2.532251069e-25
-6.077788533e-25
-1.490839468e-24
-3.751248671e-24
-9.676484273e-24
-2.549352653e-23
-6.795539168e-23
-1.810009772e-22
-4.734471323e-22
-1.198006333e-21
-2.896142267e-21
-6.691655755e-21
-3.676207236e-80
-3.164984174e-79
-1.863139448e-78
-9.353189512e-78
-4.333354999e-77
-1.918897333e-76
-8.255639998e-76
-3.47425776e-75
-1.434707342e-74
-5.819437613e-74
-2.320267773e-73
-9.094957724e-73
-3.506382016e-72
-1.329805625e-71
-4.963584374e-71
-1.823989115e-70
-6.602686035e-70
-2.355669874e-69
-8.28961089e-69
-2.879458448e-68
-9.882886916e-68
-3.355273788e-67
-1.128341231e-66
-3.764400869e-66
-1.248298653e-65
-4.123414833e-65
-1.360314925e-64
-4.495163523e-64
-1.492854156e-63
-5.000135731e-63
-1.6950022e-62
-5.833870142e-62
-2.043667387e-61
-7.296683557e-61
-2.655598e-60
-9.841450374e-60
-3.706394445e-59
-1.414917139e-58
-5.46025334e-58
-2.124500327e-57
-8.31459546e-57
-3.266476952e-56
-1.285908853e-55
-5.064773711e-55
-1.993005403e-54
-7.82445684e-54
-3.060562858e-53
-1.191079448e-52
-4.605302021e-52
-1.766622602e-51
-6.71441399e-51
-2.52520656e-50
-9.386549044e-50
-3.445020485e-49
-1.247325134e-48
-4.452126857e-48
-1.565770411e-47
-5.423860279e-47
-1.850245113e-46
-6.215589467e-46
-2.056500433e-45
-6.703416254e-45
-2.153657229e-44
-6.823724676e-44
-2.133717904e-43
-6.589858103e-43
-2.011999684e-42
-6.078604949e-42
-1.818947053e-41
-5.396055454e-41
-1.588310646e-40
-4.641960461e-40
-1.347733027e-39
-3.888551305e-39
-1.115100766e-38
-3.178109607e-38
-9.000811806e-38
-2.532523552e-37
-7.07761604e-37
-1.964303634e-36
-5.413736413e-36
-1.481844236e-35
-4.029531949e-35
-1.089075017e-34
-2.927360981e-34
-7.830805313e-34
-2.086141939e-33
-5.537928084e-33
-1.465578259e-32
-3.867528781e-32
-1.017725343e-31
-2.67004721e-31
-6.981291922e-31
-1.818221398e-30
-4.713585463e-30
-1.215310374e-29
-3.11334839e-29
-7.915801259e-29
-1.995120386e-28
-4.978925712e-28
-1.228906224e-27
-2.997619308e-27
-7.223665817e-27
-1.720533548e-26
-4.056251534e-26
-9.493743253e-26
-2.215950061e-25
-5.191087118e-25
-1.229286811e-24
-2.964468983e-24
-7.318401982e-24
-1.855114941e-23
-4.823070786e-23
-1.280991517e-22
-3.440328981e-22
-9.212501434e-22
-2.411033204e-21
-6.062613773e-21
-1.443667911e-20
-3.255674619e-20
-1.256691102e-79
-1.058928631e-78
-6.135457274e-78
-3.050791157e-77
-1.407104377e-76
-6.223668615e-76
-2.679347637e-75
-1.129284604e-74
-4.672199449e-74
-1.898928779e-73
-7.586551691e-73
-2.979764396e-72
-1.151088254e-71
-4.374241392e-71
-1.6359787e-70
-6.02396093e-70
-2.185131428e-69
-7.812664292e-69
-2.755442337e-68
-9.59403883e-68
-3.301329866e-67
-1.123963153e-66
-3.791550053e-66
-1.269379139e-65
-4.226102073e-65
-1.40235013e-64
-4.650697648e-64
-1.546156088e-63
-5.170651791e-63
-1.745590514e-62
-5.969882714e-62
-2.074611988e-61
-7.342281537e-61
-2.649176934e-60
-9.74315111e-60
-3.647639079e-59
-1.387064635e-58
-5.343185202e-58
-2.079366021e-57
-8.153937286e-57
-3.214541666e-56
-1.271549266e-55
-5.038206886e-55
-1.996614699e-54
-7.902693777e-54
-3.119790181e-53
-1.226712494e-52
-4.79748291e-52
-1.863451171e-51
-7.178661308e-51
-2.739048065e-50
-1.033796807e-49
-3.855244296e-49
-1.419107379e-48
-5.151832124e-48
-1.843326828e-47
-6.497174217e-47
-2.255232089e-46
-7.707969995e-46
-2.594064587e-45
-8.597927553e-45
-2.807544282e-44
-9.036332683e-44
-2.868556525e-43
-8.988090577e-43
-2.782128759e-42
-8.515290269e-42
-2.579638627e-41
-7.74246007e-41
-2.304411665e-40
-6.807012903e-40
-1.996900371e-39
-5.820570462e-39
-1.68616815e-38
-4.855048028e-38
-1.389320058e-37
-3.950349195e-37
-1.115787684e-36
-3.129977987e-36
-8.71866139e-36
-2.411602974e-35
-6.625018968e-35
-1.808236829e-34
-4.906211836e-34
-1.324188679e-33
-3.557765121e-33
-9.521921184e-33
-2.540008808e-32
-6.755723846e-32
-1.791840248e-31
-4.738950389e-31
-1.249379596e-30
-3.281933483e-30
-8.584446635e-30
-2.234087388e-29
-5.779453647e-29
-1.484564433e-28
-3.781904695e-28
-9.542408499e-28
-2.381730622e-27
-5.873889973e-27
-1.430313347e-26
-3.438095616e-26
-8.164017678e-26
-1.918722477e-25
-4.479199805e-25
-1.044120622e-24
-2.447468049e-24
-5.812393134e-24
-1.408453555e-23
-3.498094134e-23
-8.92548359e-23
-2.336384199e-22
-6.249003047e-22
-1.688746865e-21
-4.537132571e-21
-1.184336402e-20
-2.947132619e-20
-6.879077701e-20
-1.50591896e-19
-4.197244457e-79
-3.456424153e-78
-1.970326355e-77
-9.706705921e-77
-4.458976201e-76
-1.970678514e-75
-8.491426083e-75
-3.584799357e-74
-1.485979047e-73
-6.051578092e-73
-2.422558183e-72
-9.53403714e-72
-3.690292211e-71
-1.405111318e-70
-5.265558545e-70
-1.942763197e-69
-7.06166129e-69
-2.530192415e-68
-8.943709609e-68
-3.12150694e-67
-1.076893307e-66
-3.676766171e-66
-1.244225763e-65
-4.180376504e-65
-1.397395142e-64
-4.658544584e-64
-1.553225562e-63
-5.195740892e-63
-1.749881848e-62
-5.955007344e-62
-2.054800817e-61
-7.20994639e-61
-2.57772017e-60
-9.397558306e-60
-3.491865577e-59
-1.320275428e-58
-5.067677446e-58
-1.96926144e-57
-7.726046776e-57
-3.05261895e-56
-1.211968883e-55
-4.82606886e-55
-1.924292119e-54
-7.671605398e-54
-3.053780856e-53
-1.212079061e-52
-4.79026407e-52
-1.882365398e-51
-7.344120511e-51
-2.840866519e-50
-1.088045016e-49
-4.120783898e-49
-1.541551878e-48
-5.690580239e-48
-2.071205044e-47
-7.428177466e-47
-2.623833393e-46
-9.125657257e-46
-3.124788623e-45
-1.053498579e-44
-3.497870217e-44
-1.144189258e-43
-3.689355362e-43
-1.173426532e-42
-3.684363202e-42
-1.143043106e-41
-3.507355146e-41
-1.065492872e-40
-3.207776464e-40
-9.579402296e-40
-2.839860921e-39
-8.36274507e-39
-2.447225599e-38
-7.118028331e-38
-2.057819298e-37
-5.912200051e-37
-1.687620068e-36
-4.784794023e-36
-1.347154157e-35
-3.766040642e-35
-1.045414874e-34
-2.88228347e-34
-7.896304622e-34
-2.150884801e-33
-5.829473673e-33
-1.573193211e-32
-4.23024868e-32
-1.133972712e-31
-3.031236204e-31
-8.080498166e-31
-2.147716438e-30
-5.689374654e-30
-1.501248391e-29
-3.942978654e-29
-1.029904011e-28
-2.672498883e-28
-6.88121356e-28
-1.755751051e-27
-4.433064595e-27
-1.106135151e-26
-2.724456136e-26
-6.619400211e-26
-1.586394314e-25
-3.75418045e-25
-8.793812862e-25
-2.047628384e-24
-4.768175814e-24
-1.11887494e-23
-2.66575775e-23
-6.490413058e-23
-1.620597592e-22
-4.156962802e-22
-1.093966579e-21
-2.941871029e-21
-7.983600394e-21
-2.145283561e-20
-5.559900171e-20
-1.361824173e-19
-3.099009249e-19
-6.551004486e-19
-1.363684146e-78
-1.095816602e-77
-6.14390633e-77
-2.999907715e-76
-1.373218356e-75
-6.066605426e-75
-2.616858679e-74
-1.106651306e-73
-4.59614866e-73
-1.875481957e-72
-7.522738811e-72
-2.966411454e-71
-1.150427582e-70
-4.388880396e-70
-1.64791692e-69
-6.09218202e-69
-2.218931524e-68
-7.967291417e-68
-2.822565123e-67
-9.874782592e-67
-3.41554898e-66
-1.169478113e-65
-3.970145249e-65
-1.33869799e-64
-4.493305201e-64
-1.505019374e-63
-5.045275586e-63
-1.69830058e-62
-5.760790354e-62
-1.976337818e-61
-6.880565922e-61
-2.437592652e-60
-8.802902027e-60
-3.242060995e-59
-1.21675937e-58
-4.644875442e-58
-1.799029282e-57
-7.049954756e-57
-2.787634987e-56
-1.10946955e-55
-4.435068024e-55
-1.77746535e-54
-7.130727725e-54
-2.859400822e-53
-1.144535849e-52
-4.566682971e-52
-1.813754281e-51
-7.160386843e-51
-2.805725001e-50
-1.089645603e-49
-4.188584351e-49
-1.591647468e-48
-5.972271167e-48
-2.210699109e-47
-8.066351356e-47
-2.899479964e-46
-1.026303388e-45
-3.576345172e-45
-1.226826547e-44
-4.143369439e-44
-1.37806641e-43
-4.515660444e-43
-1.458687771e-42
-4.648461706e-42
-1.462619262e-41
-4.548204963e-41
-1.399182707e-40
-4.26266891e-40
-1.287342326e-39
-3.857491103e-39
-1.14774178e-38
-3.392804923e-38
-9.96785003e-38
-2.910908551e-37
-8.449125077e-37
-2.437018778e-36
-6.983016198e-36
-1.987183845e-35
-5.615024931e-35
-1.575250203e-34
-4.388144634e-34
-1.214191153e-33
-3.338849172e-33
-9.130755891e-33
-2.485132256e-32
-6.736772531e-32
-1.820089311e-31
-4.903044593e-31
-1.31722183e-30
-3.528955028e-30
-9.425412264e-30
-2.508452148e-29
-6.647734767e-29
-1.752861484e-28
-4.594118108e-28
-1.19546887e-27
-3.084491491e-27
-7.879715757e-27
-1.9900728e-26
-4.961931264e-26
-1.22000397e-25
-2.956234882e-25
-7.061023428e-25
-1.664842485e-24
-3.88651926e-24
-9.028380704e-24
-2.101199982e-23
-4.938649645e-23
-1.180837462e-22
-2.887800044e-22
-7.240979591e-22
-1.864041688e-21
-4.92260109e-21
-1.328474647e-20
-3.611390679e-20
-9.664967295e-20
-2.471543313e-19
-5.917972724e-19
-1.305542947e-18
-2.653085775e-18
-4.290158722e-78
-3.35874215e-77
-1.851796638e-76
-8.965901641e-76
-4.091924305e-75
-1.807661451e-74
-7.807202337e-74
-3.307485144e-73
-1.376305029e-72
-5.627116097e-72
-2.26146908e-71
-8.93477903e-71
-3.471681643e-70
-1.326982355e-69
-4.992075569e-69
-1.849139424e-68
-6.748613371e-68
-2.428252976e-67
-8.621653925e-67
-3.023489787e-66
-1.048494759e-65
-3.600312987e-65
-1.226150574e-64
-4.149474788e-64
-1.398536761e-63
-4.706718116e-63
-1.586521767e-62
-5.37427318e-62
-1.836184974e-61
-6.350577112e-61
-2.230711186e-60
-7.978442056e-60
-2.909868612e-59
-1.082385669e-58
-4.101835441e-58
-1.580398799e-57
-6.174526022e-57
-2.439292966e-56
-9.718046085e-56
-3.894987655e-55
-1.567306168e-54
-6.320653575e-54
-2.550748037e-53
-1.028629797e-52
-4.13947335e-52
-1.660072157e-51
-6.625031222e-51
-2.627216088e-50
-1.033750047e-49
-4.030191959e-49
-1.5546677e-48
-5.926676412e-48
-2.230331758e-47
-8.277645073e-47
-3.027576987e-46