/*--------------------------------*- C++ -*----------------------------------*\
  =========                 |
  \\      /  F ield         | OpenFOAM: The Open Source CFD Toolbox
   \\    /   O peration     | Website:  https://openfoam.org
    \\  /    A nd           | Version:  7
     \\/     M anipulation  |
\*---------------------------------------------------------------------------*/
FoamFile
{
    version     2.0;
    format      ascii;
    class       volScalarField;
    location    "0.361";
    object      Y_C2H4;
}
// * * * * * * * * * * * * * * * * * * * * * * * * * * * * * * * * * * * * * //

dimensions      [0 0 0 0 0 0 0];

internalField   nonuniform List<scalar> 
35870
(
1.440733867e-80
1.443284847e-79
9.649692899e-79
5.304257996e-78
2.593333602e-77
1.176618087e-76
5.085748787e-76
2.128977465e-75
8.720966157e-75
3.516755613e-74
1.400895226e-73
5.522350669e-73
2.156351365e-72
8.344109835e-72
3.200522215e-71
1.21698402e-70
4.58790302e-70
1.71483599e-69
6.355268842e-69
2.335380165e-68
8.509601718e-68
3.074645754e-67
1.101605986e-66
3.913858109e-66
1.37891366e-65
4.817489634e-65
1.668999025e-64
5.733719697e-64
1.953238464e-63
6.597815806e-63
2.209824105e-62
7.338541107e-62
2.416217504e-61
7.88701275e-61
2.552207442e-60
8.186877547e-60
2.603130333e-59
8.203979245e-59
2.562613594e-58
7.933327755e-58
2.434070624e-57
7.401487383e-57
2.230643425e-56
6.663499997e-56
1.973310524e-55
5.794267694e-55
1.687477056e-54
4.876209099e-54
1.398794531e-53
3.986015742e-53
1.129244836e-52
3.183683461e-52
8.942677392e-52
2.505968576e-51
7.015952165e-51
1.965469588e-50
5.517935973e-50
1.554634088e-49
4.400760203e-49
1.252648149e-48
3.586720627e-48
1.032987398e-47
2.990820606e-47
8.69744333e-47
2.537432202e-46
7.417023359e-46
2.169274632e-45
6.339983187e-45
1.849425204e-44
5.379089704e-44
1.558544924e-43
4.495200703e-43
1.289849184e-42
3.680294154e-42
1.043802836e-41
2.941864439e-41
8.237617966e-41
2.291327309e-40
6.330405362e-40
1.737016287e-39
4.733510144e-39
1.281025512e-38
3.442888493e-38
9.189269487e-38
2.435789836e-37
6.412280472e-37
1.676552185e-36
4.353878351e-36
1.123098719e-35
2.877896829e-35
7.326345814e-35
1.853108972e-34
4.65768696e-34
1.163482851e-33
2.888986857e-33
7.1320892e-33
1.750967661e-32
4.276162039e-32
1.039175545e-31
2.513936408e-31
6.05686532e-31
1.454140867e-30
3.480976464e-30
8.314926772e-30
1.983589911e-29
4.730786485e-29
1.129311832e-28
2.702103892e-28
6.490111103e-28
1.567400611e-27
3.81174347e-27
9.345034263e-27
2.310154348e-26
5.752780287e-26
1.439161825e-25
3.601779e-25
8.969675222e-25
2.21155739e-24
5.385202229e-24
1.302043165e-23
2.93754956e-80
2.919247559e-79
1.935656266e-78
1.056410628e-77
5.137958892e-77
2.323849865e-76
1.003291896e-75
4.201750532e-75
1.723908454e-74
6.967948766e-74
2.783432228e-73
1.100569207e-72
4.311127035e-72
1.673613995e-71
6.440437675e-71
2.456986322e-70
9.293067639e-70
3.484925858e-69
1.295780252e-68
4.777267619e-68
1.746444798e-67
6.330839917e-67
2.275677532e-66
8.111545516e-66
2.867119675e-65
1.004926652e-64
3.492761245e-64
1.203764275e-63
4.113815216e-63
1.394007282e-62
4.683687089e-62
1.560248265e-61
5.153014433e-61
1.687195641e-60
5.476233288e-60
1.761902904e-59
5.618772449e-59
1.77597037e-58
5.563447588e-58
1.72723289e-57
5.314348165e-57
1.620490825e-56
4.897359023e-56
1.467024605e-55
4.356523584e-55
1.282829652e-54
3.74681743e-54
1.085935971e-53
3.124912452e-53
8.934496515e-53
2.540260412e-52
7.189841265e-52
2.028271859e-51
5.710862732e-51
1.607319053e-50
4.529051429e-50
1.27961512e-49
3.630041766e-49
1.035081125e-48
2.968711386e-48
8.566279752e-48
2.486222857e-47
7.252968341e-47
2.12458799e-46
6.241308341e-46
1.836238917e-45
5.403152318e-45
1.588088595e-44
4.657061343e-44
1.361210445e-43
3.962320006e-43
1.147849283e-42
3.307424945e-42
9.474895506e-42
2.697679184e-41
7.63176248e-41
2.144835353e-40
5.987381982e-40
1.660017549e-39
4.570834915e-39
1.249879328e-38
3.394072839e-38
9.152776259e-38
2.451135625e-37
6.518901713e-37
1.721824317e-36
4.516792545e-36
1.176854295e-35
3.045761811e-35
7.830417849e-35
2.000004865e-34
5.075552079e-34
1.279967692e-33
3.208089825e-33
7.992920818e-33
1.980027194e-32
4.878134248e-32
1.195598998e-31
2.916206988e-31
7.081655953e-31
1.712942594e-30
4.12946642e-30
9.92824859e-30
2.382464681e-29
5.711449493e-29
1.369346099e-28
3.287462616e-28
7.914730281e-28
1.913891638e-27
4.656495125e-27
1.14156795e-26
2.82320746e-26
7.043579148e-26
1.770600294e-25
4.470250231e-25
1.128190037e-24
2.829164613e-24
7.009907837e-24
1.710763214e-23
4.131999913e-23
8.790204246e-80
8.643553884e-79
5.670323655e-78
3.066826671e-77
1.48197002e-76
6.677907652e-76
2.879599635e-75
1.206849456e-74
4.96202302e-74
2.011616635e-73
8.063833021e-73
3.200465716e-72
1.258590564e-71
4.905364773e-71
1.8952569e-70
7.259275294e-70
2.756698951e-69
1.037910108e-68
3.874646586e-68
1.434201396e-67
5.263955344e-67
1.915752992e-66
6.913609701e-66
2.474039324e-65
8.779120662e-65
3.089108449e-64
1.077835748e-63
3.729060531e-63
1.279280769e-62
4.351471614e-62
1.467557101e-61
4.907057075e-61
1.626643018e-60
5.345414987e-60
1.741261221e-59
5.62224722e-59
1.799264063e-58
5.706815998e-58
1.793852111e-57
5.588033941e-57
1.725071531e-56
5.277639307e-56
1.600233723e-55
4.809352552e-55
1.432933113e-54
4.23362748e-54
1.240795971e-53
3.609028787e-53
1.042451811e-52
2.992439201e-52
8.544955668e-52
2.429964438e-51
6.890693981e-51
1.95134279e-50
5.527034107e-50
1.568303303e-49
4.464807544e-49
1.276953163e-48
3.672540477e-48
1.062696244e-47
3.094020196e-47
9.059858557e-47
2.665860299e-46
7.873568557e-46
2.331028097e-45
6.908117681e-45
2.046538467e-44
6.053194834e-44
1.785554568e-43
5.247763455e-43
1.535487265e-42
4.470039267e-42
1.2940422e-41
3.723783726e-41
1.064844624e-40
3.025194086e-40
8.537118312e-40
2.392807839e-39
6.660523363e-39
1.841164988e-38
5.054137334e-38
1.377733169e-37
3.729473455e-37
1.002537317e-36
2.67630644e-36
7.095283304e-36
1.86820009e-35
4.885652953e-35
1.269107561e-34
3.274821524e-34
8.395248259e-34
2.138392986e-33
5.412646299e-33
1.361669604e-32
3.405314856e-32
8.467719081e-32
2.094183959e-31
5.152781792e-31
1.261845163e-30
3.076807218e-30
7.47380117e-30
1.809652958e-29
4.370774858e-29
1.053897503e-28
2.539353592e-28
6.121286634e-28
1.478134896e-27
3.581162168e-27
8.719203449e-27
2.13731429e-26
5.282533861e-26
1.317938119e-25
3.31857871e-25
8.420965388e-25
2.145354406e-24
5.458472461e-24
1.377667089e-23
3.427620733e-23
8.374454885e-23
2.017477973e-22
2.9603062e-79
2.877280966e-78
1.866258231e-77
1.000031918e-76
4.801453912e-76
2.156033758e-75
9.288511404e-75
3.896735551e-74
1.605882523e-73
6.530532691e-73
2.627189445e-72
1.046660198e-71
4.132105148e-71
1.61685473e-70
6.271790726e-70
2.411792609e-69
9.195175546e-69
3.475765747e-68
1.302691913e-67
4.84098281e-67
1.783799559e-66
6.517450707e-66
2.361252661e-65
8.482743802e-65
3.021802977e-64
1.067394375e-63
3.738626703e-63
1.298422249e-62
4.471240066e-62
1.526618692e-61
5.167821888e-61
1.734346401e-60
5.770219102e-60
1.90304114e-59
6.221258354e-59
2.015820263e-58
6.473571125e-58
2.060295125e-57
6.498137959e-57
2.030999035e-56
6.290578754e-56
1.930831687e-55
5.873588292e-55
1.771021837e-54
5.294105091e-54
1.569400909e-53
4.615487914e-53
1.34731135e-52
3.906417075e-52
1.125925783e-51
3.229278838e-51
9.227629958e-51
2.630661274e-50
7.493665061e-50
2.136383237e-49
6.105434743e-49
1.751652192e-48
5.051277277e-48
1.46534047e-47
4.277771446e-47
1.256544705e-46
3.711545444e-46
1.101326548e-45
3.278804237e-45
9.780222146e-45
2.91878091e-44
8.703435116e-44
2.589930516e-43
7.683053532e-43
2.270074218e-42
6.675563718e-42
1.952635628e-41
5.678551972e-41
1.641270857e-40
4.713348669e-40
1.344609073e-39
3.809908006e-39
1.07211055e-38
2.996007046e-38
8.313973027e-38
2.291005879e-37
6.268908484e-37
1.703368266e-36
4.596043906e-36
1.231493166e-35
3.276949558e-35
8.660038369e-35
2.273051105e-34
5.926116228e-34
1.534761333e-33
3.948808896e-33
1.009483371e-32
2.564497431e-32
6.475151296e-32
1.625281584e-31
4.056415877e-31
1.006957592e-30
2.487021471e-30
6.113808084e-30
1.496608411e-29
3.650001173e-29
8.874478759e-29
2.152606571e-28
5.213659751e-28
1.262117652e-27
3.057539708e-27
7.422298966e-27
1.808521509e-26
4.430556606e-26
1.093401609e-25
2.722303035e-25
6.845833371e-25
1.738161653e-24
4.447947559e-24
1.142280561e-23
2.926775075e-23
7.425822966e-23
1.852817528e-22
4.525559566e-22
1.085759455e-21
1.046407959e-78
1.00417765e-77
6.43537089e-77
3.41556363e-76
1.629515334e-75
7.293477644e-75
3.140210379e-74
1.31906416e-73
5.449673075e-73
2.223335609e-72
8.976763118e-72
3.589929217e-71
1.422804588e-70
5.589231819e-70
2.17664656e-69
8.403304004e-69
3.21650237e-68
1.220631653e-67
4.592885661e-67
1.713489891e-66
6.338619162e-66
2.324989006e-65
8.456197171e-65
3.049659226e-64
1.090577721e-63
3.867070929e-63
1.359650042e-62
4.739995612e-62
1.638420592e-61
5.615002719e-61
1.907807664e-60
6.42620505e-60
2.145782592e-59
7.102274731e-59
2.330044542e-58
7.576254004e-58
2.441423081e-57
7.796587757e-57
2.467292731e-56
7.737139735e-56
2.404283922e-55
7.403785907e-55
2.259557423e-54
6.835319219e-54
2.050020075e-53
6.097612844e-53
1.799496231e-52
5.272041372e-52
1.534485096e-51
4.441131428e-51
1.27952558e-50
3.674410923e-50
1.053281857e-49
3.01864206e-49
8.663751555e-49
2.494158616e-48
7.212489588e-48
2.097359114e-47
6.137392493e-47
1.807582369e-46
5.356407579e-46
1.595772827e-45
4.77418335e-45
1.432425994e-44
4.303933728e-44
1.29319023e-43
3.880516174e-43
1.161547041e-42
3.464709724e-42
1.028999872e-41
3.040787426e-41
8.936001995e-41
2.610372631e-40
7.577431168e-40
2.185217017e-39
6.259517099e-39
1.780753082e-38
5.030884483e-38
1.411366101e-37
3.931677071e-37
1.087554038e-36
2.987151625e-36
8.147076145e-36
2.20644967e-35
5.934014116e-35
1.584835575e-34
4.203628489e-34
1.107380397e-33
2.897576545e-33
7.531434518e-33
1.944783256e-32
4.989648689e-32
1.272148635e-31
3.223675883e-31
8.120807089e-31
2.034174807e-30
5.068053626e-30
1.256338515e-29
3.099935907e-29
7.617018629e-29
1.864803169e-28
4.551783468e-28
1.10852473e-27
2.696015525e-27
6.554628893e-27
1.595077491e-26
3.890655994e-26
9.528674693e-26
2.347294678e-25
5.827843247e-25
1.46052465e-24
3.698903764e-24
9.461461882e-24
2.439399288e-23
6.30875135e-23
1.626114026e-22
4.142798977e-22
1.035335839e-21
2.524568686e-21
6.022360843e-21
3.7831049e-78
3.580195822e-77
2.265340677e-76
1.190587859e-75
5.644646261e-75
2.519010046e-74
1.084245511e-73
4.561477834e-73
1.889659601e-72
7.735118e-72
3.134573702e-71
1.25836561e-70
5.006819626e-70
1.974576665e-69
7.720049834e-69
2.992202372e-68
1.149828366e-67
4.38065592e-67
1.654800383e-66
6.197835827e-66
2.301697353e-65
8.475463525e-65
3.094578615e-64
1.12035178e-63
4.021883352e-63
1.431580889e-62
5.052574104e-62
1.76808961e-61
6.134522349e-61
2.110185883e-60
7.196249235e-60
2.432825367e-59
8.152850715e-59
2.708131642e-58
8.91591167e-58
2.909144376e-57
9.40681662e-57
3.014205579e-56
9.570588487e-56
3.011141188e-55
9.387623305e-55
2.900242809e-54
8.879996077e-54
2.695035697e-53
8.109601687e-53
2.420310851e-52
7.167782421e-52
2.107726375e-51
6.158913204e-51
1.790102233e-50
5.181398046e-50
1.495565751e-49
4.311422626e-49
1.243394443e-48
3.593345928e-48
1.042268715e-47
3.038366667e-47
8.910684621e-47
2.630378322e-46
7.815559105e-46
2.336222368e-45
7.018931091e-45
2.116831885e-44
6.399470139e-44
1.936443188e-43
5.856731916e-43
1.768220491e-42
5.323024742e-42
1.596274104e-41
4.764777055e-41
1.414782538e-40
4.176692532e-40
1.225471931e-39
3.572518037e-39
1.034546335e-38
2.975498296e-38
8.498728822e-38
2.410458869e-37
6.788576148e-37
1.89837546e-36
5.271138269e-36
1.453269431e-35
3.978447561e-35
1.081478505e-34
2.919271967e-34
7.825341037e-34
2.083186638e-33
5.507795541e-33
1.446391936e-32
3.773049271e-32
9.777865016e-32
2.517654168e-31
6.441892981e-31
1.638227004e-30
4.141597177e-30
1.041126422e-29
2.603186063e-29
6.476255835e-29
1.603725006e-28
3.95486625e-28
9.717666554e-28
2.380733733e-27
5.819665414e-27
1.420796882e-26
3.467835254e-26
8.473380404e-26
2.075605907e-25
5.106447076e-25
1.264043248e-24
3.154978243e-24
7.952209906e-24
2.026503885e-23
5.217395102e-23
1.353994837e-22
3.52280246e-22
9.124931117e-22
2.331642225e-21
5.829106817e-21
1.416925373e-20
3.355266924e-20
1.380529775e-77
1.286826364e-76
8.033497202e-76
4.180077124e-75
1.969718426e-74
8.767064935e-74
3.773733511e-73
1.590507586e-72
6.607888795e-72
2.7141738e-71
1.103991998e-70
4.449013734e-70
1.777111057e-69
7.036044073e-69
2.761716301e-68
1.074616479e-67
4.145746986e-67
1.585658421e-66
6.013282329e-66
2.260988111e-65
8.429375741e-65
3.11597308e-64
1.142114331e-63
4.150812219e-63
1.495793711e-62
5.344569563e-62
1.893454369e-61
6.650901939e-61
2.316216505e-60
7.997005677e-60
2.737199624e-59
9.287278874e-59
3.123535135e-58
1.041232104e-57
3.440051159e-57
1.126330051e-56
3.654466522e-56
1.174938354e-55
3.743029174e-55
1.181522137e-54
3.695559753e-54
1.14542271e-53
3.518451983e-53
1.071325204e-52
3.234427376e-52
9.686098049e-52
2.878732296e-51
8.496863037e-51
2.492806336e-50
7.276957251e-50
2.116355864e-49
6.140929637e-49
1.780672152e-48
5.168637938e-48
1.504335758e-47
4.39707395e-47
1.292361382e-46
3.822747486e-46
1.138382293e-45
3.412221114e-45
1.028778559e-44
3.116506093e-44
9.472980257e-44
2.884934623e-43
8.789640521e-43
2.675388396e-42
8.125328066e-42
2.459609013e-41
7.414334848e-41
2.224035493e-40
6.634705844e-40
1.967497893e-39
5.797856786e-39
1.697330171e-38
4.935435852e-38
1.425224062e-37
4.086919593e-37
1.16368798e-36
3.289959056e-36
9.235313898e-36
2.574047825e-35
7.12340529e-35
1.95736843e-34
5.340519237e-34
1.446894628e-33
3.892719476e-33
1.040056048e-32
2.759794222e-32
7.273562389e-32
1.904180834e-31
4.952299667e-31
1.279673349e-30
3.285869043e-30
8.385684627e-30
2.127426445e-29
5.36670234e-29
1.346548868e-28
3.361629133e-28
8.353354047e-28
2.067116849e-27
5.096770537e-27
1.252978692e-26
3.073498586e-26
7.529710393e-26
1.844304818e-25
4.522639172e-25
1.111965197e-24
2.746362208e-24
6.826554264e-24
1.711541538e-23
4.335055327e-23
1.110575004e-22
2.875094543e-22
7.502690308e-22
1.961760694e-21
5.100958175e-21
1.305761116e-20
3.261336333e-20
7.890888562e-20
1.851605332e-19
5.042600621e-77
4.623744932e-76
2.846033146e-75
1.465918881e-74
6.866991134e-74
3.049509711e-73
1.313153915e-72
5.545973952e-72
2.311113331e-71
9.526271974e-71
3.889393817e-70
1.573447165e-69
6.309507981e-69
2.507874762e-68
9.882285007e-68
3.860374833e-67
1.495108971e-66
5.740787986e-66
2.185562506e-65
8.24963923e-65
3.087545377e-64
1.145742542e-63
4.215732179e-63
1.538010866e-62
5.563571784e-62
1.995452405e-61
7.096114849e-61
2.501912662e-60
8.745494033e-60
3.030624935e-59
1.041108467e-58
3.545244003e-58
1.196612153e-57
4.003010051e-57
1.327138009e-56
4.360223117e-56
1.419510399e-55
4.579114319e-55
1.463603457e-54
4.635115588e-54
1.454475279e-53
4.522661929e-53
1.393751055e-52
4.257688448e-52
1.289721371e-51
3.875581751e-51
1.155978584e-50
3.424974695e-50
1.008931904e-49
2.958393789e-49
8.646114205e-49
2.522435715e-48
7.358339395e-48
2.150081459e-47
6.303460599e-47
1.85696288e-46
5.503409927e-46
1.641980439e-45
4.932653973e-45
1.491428846e-44
4.534798253e-44
1.384887187e-43
4.241753987e-43
1.301043127e-42
3.990323646e-42
1.222085836e-41
3.732931877e-41
1.136081266e-40
3.44202152e-40
1.037451292e-39
3.109131372e-39
9.26077272e-39
2.74065665e-38
8.056717886e-38
2.352242015e-37
6.819802861e-37
1.963316822e-36
5.611959646e-36
1.592700059e-35
4.487913306e-35
1.25558e-34
3.48768824e-34
9.619074882e-34
2.634173309e-33
7.162885103e-33
1.934126641e-32
5.186328811e-32
1.381154978e-31
3.653139714e-31
9.597799606e-31
2.504988648e-30
6.495674121e-30
1.673757465e-29
4.286359329e-29
1.091195875e-28
2.762126049e-28
6.954001676e-28
1.741914161e-27
4.342983111e-27
1.07826833e-26
2.66731251e-26
6.57840965e-26
1.618786842e-25
3.978305552e-25
9.774716383e-25
2.404448327e-24
5.930369193e-24
1.469461577e-23
3.665057318e-23
9.222660209e-23
2.345206515e-22
6.033915429e-22
1.569099917e-21
4.112953742e-21
1.079606548e-20
2.814807244e-20
7.209632238e-20
1.796612959e-19
4.319968094e-19
1.002622684e-18
1.832267719e-76
1.650531221e-75
1.00103023e-74
5.103594388e-74
2.377331145e-73
1.053751924e-72
4.540911526e-72
1.922238177e-71
8.035730693e-71
3.324154593e-70
1.362318389e-69
5.532479622e-69
2.227147633e-68
8.8868453e-68
3.515516227e-67
1.378632225e-66
5.360161411e-66
2.066136473e-65
7.896427888e-65
2.992110748e-64
1.124158179e-63
4.187614997e-63
1.546724342e-62
5.664379364e-62
2.056801052e-61
7.404854594e-61
2.643155335e-60
9.353833136e-60
3.28174515e-59
1.14140977e-58
3.935312497e-58
1.344888525e-57
4.555445465e-57
1.52927726e-56
5.08763909e-56
1.677217974e-55
5.478728768e-55
1.773224736e-54
5.686295505e-54
1.806657887e-53
5.687499192e-53
1.774212005e-52
5.485277346e-52
1.681149013e-51
5.109496828e-51
1.54070063e-50
4.612202563e-50
1.371805087e-49
4.057953281e-49
1.195306702e-48
3.510964069e-48
1.030017883e-47
3.023337414e-47
8.894444316e-47
2.627045625e-46
7.801053721e-46
2.331449087e-45
7.016419367e-45
2.126220068e-44
6.484178208e-44
1.987970323e-43
6.119130373e-43
1.888156336e-42
5.831551239e-42
1.800066809e-41
5.54592823e-41
1.703493128e-40
5.211555631e-40
1.586765946e-39
4.805115498e-39
1.446527483e-38
4.32730236e-38
1.286030672e-37
3.796091194e-37
1.112771506e-36
3.239006659e-36
9.360999872e-36
2.686075055e-35
7.652309317e-35
2.164425206e-34
6.078109526e-34
1.694632731e-33
4.691091471e-33
1.289368898e-32
3.518869381e-32
9.536141188e-32
2.566319883e-31
6.858772525e-31
1.820596184e-30
4.800121039e-30
1.25721314e-29
3.271440529e-29
8.45877278e-29
2.173656375e-28
5.552375732e-28
1.410191194e-27
3.562132561e-27
8.952043305e-27
2.239131559e-26
5.576811385e-26
1.383782659e-25
3.423044542e-25
8.447695951e-25
2.081907849e-24
5.12910154e-24
1.265005447e-23
3.128066754e-23
7.770881337e-23
1.943282209e-22
4.903647868e-22
1.250658653e-21
3.228217144e-21
8.42322048e-21
2.215258261e-20
5.830633987e-20
1.522528308e-19
3.897010364e-19
9.675456085e-19
2.30810676e-18
5.287760917e-18
6.589269167e-76
5.823410016e-75
3.477845415e-74
1.755094718e-73
8.132422608e-73
3.599467348e-72
1.552781822e-71
6.589796777e-71
2.763842431e-70
1.147472924e-69
4.720413185e-69
1.924360013e-68
7.776624966e-68
3.115062677e-67
1.237045929e-66
4.869902221e-66
1.900742982e-65
7.354866318e-65
2.821720279e-64
1.073307082e-63
4.047927824e-63
1.513650101e-62
5.612024037e-62
2.063002083e-61
7.519220892e-61
2.717197421e-60
9.735126253e-60
3.457890406e-59
1.217633674e-58
4.250395178e-58
1.470711996e-57
5.04403419e-57
1.714551339e-56
5.775791304e-56
1.928095146e-55
6.37777033e-55
2.090289751e-54
6.787642097e-54
2.183717258e-53
6.96051627e-53
2.198250705e-52
6.879399064e-52
2.13373731e-51
6.560939205e-51
2.000740918e-50
6.054024606e-50
1.818967336e-49
5.431378625e-49
1.613500937e-48
4.774900144e-48
1.409769168e-47
4.159572777e-47
1.228685747e-46
3.639969292e-46
1.083255889e-45
3.242816537e-45
9.773731413e-45
2.966861087e-44
9.068488149e-44
2.78898022e-43
8.620223124e-43
2.673793819e-42
8.309871206e-42
2.583699352e-41
8.024941157e-41
2.48676791e-40
7.679709238e-40
2.361430069e-39
7.224488195e-39
2.197802374e-38
6.645447064e-38
1.9964785e-37
5.957966806e-37
1.765802297e-36
5.19681487e-36
1.518595565e-35
4.405848155e-35
1.26906536e-34
3.629119469e-34
1.030338075e-33
2.904164358e-33
8.127034093e-33
2.257997349e-32
6.228873586e-32
1.706115164e-31
4.640244408e-31
1.25323345e-30
3.361323552e-30
8.953846207e-30
2.369021776e-29
6.226368082e-29
1.625777908e-28
4.218052855e-28
1.087583422e-27
2.787405794e-27
7.102786056e-27
1.799975071e-26
4.537908616e-26
1.138561459e-25
2.84423427e-25
7.077862969e-25
1.755682539e-24
4.344186691e-24
1.073247527e-23
2.650187965e-23
6.550202368e-23
1.622942035e-22
4.039390986e-22
1.011991096e-21
2.558394349e-21
6.537816587e-21
1.69110424e-20
4.422116044e-20
1.16542908e-19
3.071991253e-19
8.02405908e-19
2.049655706e-18
5.062557516e-18
1.1959561e-17
2.698554311e-17
2.334668555e-75
2.021428238e-74
1.18810064e-73
5.93532679e-73
2.736824647e-72
1.210121117e-71
5.227714268e-71
2.224618864e-70
9.361763328e-70
3.900958181e-69
1.610811534e-68
6.591829068e-68
2.674068752e-67
1.075253451e-66
4.286394242e-66
1.693895735e-65
6.636639189e-65
2.577833486e-64
9.927646699e-64
3.790569213e-63
1.435017082e-62
5.386271921e-62
2.004541631e-61
7.396409952e-61
2.705903095e-60
9.814531222e-60
3.529302719e-59
1.258189231e-58
4.446581087e-58
1.557755589e-57
5.409318598e-57
1.86174445e-56
6.350435145e-56
2.146622552e-55
7.190256238e-55
2.386362461e-54
7.847043966e-54
2.556420634e-53
8.251022274e-53
2.638388076e-52
8.358988045e-52
2.624261832e-51
8.165611507e-51
2.518998669e-50
7.707401539e-50
2.340359526e-49
7.057817544e-49
2.115832859e-48
6.312745873e-48
1.877064559e-47
5.571240668e-47
1.6534626e-46
4.915855686e-46
1.466696081e-45
4.398523785e-45
1.327500366e-44
4.03500578e-44
1.23539631e-43
3.808372676e-43
1.180974709e-42
3.679107021e-42
1.149692851e-41
3.59801556e-41
1.125934237e-40
3.51816529e-40
1.096313447e-39
3.403416765e-39
1.051686374e-38
3.232596177e-38
9.878214563e-38
2.999774093e-37
9.049956883e-37
2.711762946e-36
8.069203737e-36
2.384136002e-35
6.99385722e-35
2.036877441e-34
5.889292888e-34
1.690478267e-33
4.817298216e-33
1.36285038e-32
3.827816514e-32
1.067392297e-31
2.955164905e-31
8.123481908e-31
2.217309949e-30
6.009785231e-30
1.617588345e-29
4.324010843e-29
1.148030927e-28
3.027706845e-28
7.932690328e-28
2.065074962e-27
5.342357301e-27
1.373714291e-26
3.511770727e-26
8.927621524e-26
2.257672929e-25
5.681391009e-25
1.423324712e-24
3.551560076e-24
8.832177569e-24
2.190540553e-23
5.423364651e-23
1.341744623e-22
3.321736479e-22
8.241869524e-22
2.05378244e-21
5.150546153e-21
1.303267677e-20
3.333265052e-20
8.629660496e-20
2.258587605e-19
5.956947841e-19
1.570442278e-18
4.097689805e-18
1.043101275e-17
2.558972603e-17
5.974443952e-17
1.324490792e-16
8.11486064e-75
6.873399327e-74
3.973807662e-73
1.965532954e-72
9.023390061e-72
3.987629321e-71
1.725612391e-70
7.3644726e-70
3.10979053e-69
1.300565965e-68
5.390530158e-68
2.214282326e-67
9.016620223e-67
3.639376381e-66
1.456303425e-65
5.776815555e-65
2.271903702e-64
8.857961277e-64
3.424200283e-63
1.312342942e-62
4.986842429e-62
1.878786151e-61
7.018088137e-61
2.599156818e-60
9.543852186e-60
3.474336782e-59
1.253926282e-58
4.486403456e-58
1.591237994e-57
5.59435926e-57
1.949484967e-56
6.732946082e-56
2.304529135e-55
7.816409374e-55
2.626935488e-54
8.747320158e-54
2.885752794e-53
9.431530139e-53
3.053792322e-52
9.79583534e-52
3.113312077e-51
9.804950985e-51
3.06062397e-50
9.472360892e-50
2.908035644e-49
8.861330539e-49
2.682301866e-48
8.073588059e-48
2.419428026e-47
7.229030445e-47
2.157200665e-46
6.440639609e-46
1.927531608e-45
5.792634479e-45
1.750704198e-44
5.32712399e-44
1.632916523e-43
5.042127459e-43
1.567396172e-42
4.899886795e-42
1.538217696e-41
4.841522495e-41
1.525364992e-40
4.803156558e-40
1.509531374e-39
4.729383379e-39
1.475655015e-38
4.581794572e-38
1.414756657e-37
4.342197795e-37
1.324207781e-36
4.011427094e-36
1.206834016e-35
3.605260377e-35
1.069350641e-34
3.148958391e-34
9.205719591e-34
2.671671656e-33
7.697378944e-33
2.201593876e-32
6.251304687e-32
1.762186068e-31
4.931656358e-31
1.370278153e-30
3.780225339e-30
1.035476626e-29
2.816442247e-29
7.607236335e-29
2.040567479e-28
5.436387239e-28
1.438631251e-27
3.781983645e-27
9.878276112e-27
2.563919427e-26
6.614095111e-26
1.696189067e-25
4.325373286e-25
1.097099668e-24
2.76876093e-24
6.955320414e-24
1.739959838e-23
4.337147661e-23
1.077952838e-22
2.673676637e-22
6.624745518e-22
1.642020173e-21
4.077592716e-21
1.016591912e-20
2.549889611e-20
6.451483549e-20
1.649559633e-19
4.268887756e-19
1.116699339e-18
2.943234254e-18
7.749242694e-18
2.016918473e-17
5.108670123e-17
1.242606242e-16
2.860762758e-16
6.213987056e-16
2.755162244e-74
2.2794807e-73
1.295753524e-72
6.347513674e-72
2.902745358e-71
1.282678735e-70
5.561789993e-70
2.380819019e-69
1.008831679e-68
4.234506603e-68
1.761616887e-67
7.263303476e-67
2.968707593e-66
1.202746667e-65
4.83081553e-65
1.92343538e-64
7.592711081e-64
2.971367895e-63
1.15290599e-62
4.434970133e-62
1.69150394e-61
6.396226854e-61
2.398051287e-60
8.91371132e-60
3.284946128e-59
1.200178832e-58
4.347156803e-58
1.560915866e-57
5.555857652e-57
1.960138968e-56
6.854268799e-56
2.375399773e-55
8.157984461e-55
2.776253905e-54
9.361242322e-54
3.127316452e-53
1.035023053e-52
3.393518857e-52
1.102226638e-51
3.546718314e-51
1.130729115e-50
3.572214733e-50
1.118600556e-49
3.473205757e-49
1.069860272e-48
3.271570852e-48
9.940273193e-48
3.004174459e-47
9.042925879e-47
2.715311866e-46
8.147264632e-46
2.447336822e-45
7.373607248e-45
2.232163487e-44
6.799150183e-44
2.085868542e-43
6.447529675e-43
2.007601375e-42
6.29211992e-42
1.982508869e-41
6.270049631e-41
1.987241694e-40
6.301538283e-40
1.996194216e-39
6.308701173e-39
1.986854684e-38
6.229834378e-38
1.94333028e-37
6.027285933e-37
1.857829509e-36
5.68918711e-36
1.730390551e-35
5.226446934e-35
1.567398115e-34
4.666830908e-34
1.379456503e-33
4.047820151e-33
1.17911069e-32
3.409646793e-32
9.787834134e-32
2.789279329e-31
7.891052458e-31
2.216297739e-30
6.179973247e-30
1.710915048e-29
4.702989033e-29
1.28365098e-28
3.479159294e-28
9.364566804e-28
2.503360773e-27
6.646981991e-27
1.753236252e-26
4.594405383e-26
1.196349738e-25
3.096022045e-25
7.964454466e-25
2.037111947e-24
5.182015563e-24
1.311416017e-23
3.302946809e-23
8.282577129e-23
2.069027588e-22
5.151981088e-22
1.279826368e-21
3.174804567e-21
7.874970137e-21
1.956149486e-20
4.876006141e-20
1.222232124e-19
3.08894175e-19
7.886261734e-19
2.037241099e-18
5.318509901e-18
1.398598345e-17
3.671785951e-17
9.517565977e-17
2.394686566e-16
5.763889115e-16
1.305248993e-15
2.76921238e-15
9.097312057e-74
7.340369916e-73
4.101163756e-72
1.990534075e-71
9.072789514e-71
4.01061013e-70
1.742942636e-69
7.484320378e-69
3.182376892e-68
1.340620948e-67
5.597603451e-67
2.316446234e-66
9.502804374e-66
3.864173683e-65
1.557750875e-64
6.225155217e-64
2.466387371e-63
9.687486674e-63
3.772548925e-62
1.456515097e-61
5.575396407e-61
2.115926278e-60
7.961646663e-60
2.970053583e-59
1.098467322e-58
4.027626858e-58
1.464005205e-57
5.275207137e-57
1.88416946e-56
6.670387111e-56
2.34048242e-55
8.138520118e-55
2.804382464e-54
9.575039389e-54
3.239087012e-53
1.085549624e-52
3.604114305e-52
1.18536863e-51
3.862031802e-51
1.24653761e-50
3.98629795e-50
1.263249691e-49
3.96814232e-49
1.236059489e-48
3.820217784e-48
1.17233088e-47
3.57548017e-47
1.085039744e-46
3.280890275e-46
9.900969592e-46
2.987367458e-45
9.029273986e-45
2.73897268e-44
8.352744023e-44
2.564224601e-43
7.93091668e-43
2.471846114e-42
7.76016061e-42
2.451626454e-41
7.783557695e-41
2.479394233e-40
7.910935505e-40
2.52417536e-39
8.042275121e-39
2.555334921e-38
8.088318729e-38
2.548175647e-37
7.984700515e-37
2.487199758e-36
7.698489388e-36
2.367052457e-35
7.227992331e-35
2.191604885e-34
6.597661513e-34
1.97181266e-33
5.850139338e-33
1.722973864e-32
5.037304304e-32
1.461930423e-31
4.211786103e-31
1.204547341e-30
3.419868142e-30
9.639084875e-30
2.697231998e-29
7.493327354e-29
2.066926052e-28
5.660988332e-28
1.539582018e-27
4.158028041e-27
1.115273171e-26
2.971158333e-26
7.862644334e-26
2.06711797e-25
5.399817129e-25
1.401788231e-24
3.617077427e-24
9.278933275e-24
2.367066285e-23
6.006419411e-23
1.51655837e-22
3.811601087e-22
9.54054479e-22
2.379609647e-21
5.918890164e-21
1.469515221e-20
3.646316436e-20
9.055555063e-20
2.255364468e-19
5.645067706e-19
1.423650082e-18
3.624815273e-18
9.333702712e-18
2.427894771e-17
6.359158249e-17
1.661813113e-16
4.282381038e-16
1.068342991e-15
2.539062841e-15
5.639723342e-15
1.164487333e-14
2.907739566e-73
2.284409138e-72
1.254202645e-71
6.034413252e-71
2.743080172e-70
1.213545393e-69
5.286820371e-69
2.277455947e-68
9.717373982e-68
4.108215374e-67
1.721506038e-66
7.149851802e-66
2.943688982e-65
1.201337024e-64
4.860381196e-64
1.94933986e-63
7.751038518e-63
3.055414298e-62
1.19412514e-61
4.626829475e-61
1.77743063e-60
6.76958055e-60
2.556242626e-59
9.569631711e-59
3.551743483e-58
1.306828628e-57
4.766686765e-57
1.723481897e-56
6.176825888e-56
2.194131429e-55
7.724462719e-55
2.694915667e-54
9.316525709e-54
3.19121348e-53
1.082972619e-52
3.640873967e-52
1.212546044e-51
4.000199822e-51
1.307256971e-50
4.23214802e-50
1.357488708e-49
4.314963421e-49
1.359627177e-48
4.248704073e-48
1.317499068e-47
4.057361027e-47
1.242152521e-46
3.785146085e-46
1.149767388e-45
3.487356329e-45
1.058168029e-44
3.218318531e-44
9.829558454e-44
3.019807501e-43
9.343144153e-43
2.913129405e-42
9.153518877e-42
2.896793633e-41
9.2227806e-41
2.949692767e-40
9.461001482e-40
3.03812228e-39
9.751751868e-39
3.124240801e-38
9.978263244e-38
3.17373068e-37
1.004458937e-36
3.161256382e-36
9.888610574e-36
3.073221678e-35
9.486639976e-35
2.908040481e-34
8.851011109e-34
2.674508684e-33
8.022744785e-33
2.388967759e-32
7.061476256e-32
2.071932861e-31
6.034663052e-31
1.744741313e-30
5.007459748e-30
1.426667464e-29
4.035154193e-29
1.133038487e-28
3.158594909e-28
8.742335178e-28
2.402524945e-27
6.556026523e-27
1.776543034e-26
4.780870702e-26
1.277834084e-25
3.392529507e-25
8.947613983e-25
2.344685875e-24
6.105527839e-24
1.580149481e-23
4.065309186e-23
1.039931908e-22
2.645692431e-22
6.696143176e-22
1.686587028e-21
4.229411294e-21
1.056485184e-20
2.630651336e-20
6.535031921e-20
1.621531336e-19
4.024372864e-19
1.000883966e-18
2.499584057e-18
6.28423468e-18
1.593759106e-17
4.084505823e-17
1.056829314e-16
2.751894239e-16
7.14477453e-16
1.826832095e-15
4.509681201e-15
1.055721023e-14
2.292878423e-14
4.588875755e-14
8.95109807e-73
6.835815126e-72
3.687678692e-71
1.759947721e-70
7.983836208e-70
3.536299941e-69
1.544625835e-68
6.675406011e-68
2.857971179e-67
1.212505328e-66
5.098746429e-66
2.125130527e-65
8.780298272e-65
3.595961211e-64
1.459984453e-63
5.876182658e-63
2.34473056e-62
9.275309763e-62
3.637714006e-61
1.414427851e-60
5.452593507e-60
2.083923509e-59
7.896325702e-59
2.966301914e-58
1.104715603e-57
4.078571504e-57
1.492712566e-56
5.415331955e-56
1.947293561e-55
6.940042623e-55
2.45123853e-54
8.579492982e-54
2.975456693e-53
1.02240044e-52
3.480404169e-52
1.173672863e-51
3.920597187e-51
1.297281073e-50
4.252078465e-50
1.380651607e-49
4.441657192e-49
1.416068906e-48
4.475605832e-48
1.402997197e-47