/*--------------------------------*- C++ -*----------------------------------*\
  =========                 |
  \\      /  F ield         | OpenFOAM: The Open Source CFD Toolbox
   \\    /   O peration     | Website:  https://openfoam.org
    \\  /    A nd           | Version:  7
     \\/     M anipulation  |
\*---------------------------------------------------------------------------*/
FoamFile
{
    version     2.0;
    format      ascii;
    class       volScalarField;
    location    "0.361";
    object      Y_C2H2;
}
// * * * * * * * * * * * * * * * * * * * * * * * * * * * * * * * * * * * * * //

dimensions      [0 0 0 0 0 0 0];

internalField   nonuniform List<scalar> 
35870
(
8.270058778e-80
8.146064086e-79
5.384826219e-78
2.937179309e-77
1.429371661e-76
6.471994214e-76
2.7976302e-75
1.173084243e-74
4.818632351e-74
1.949888319e-73
7.797673207e-73
3.086588579e-72
1.210390305e-71
4.703990793e-71
1.812173061e-70
6.920692307e-70
2.620316244e-69
9.836262073e-69
3.660895364e-68
1.350847481e-67
4.942546493e-67
1.79315873e-66
6.450799198e-66
2.301083549e-65
8.139130421e-65
2.854614509e-64
9.927508377e-64
3.423342932e-63
1.17050304e-62
3.968231572e-62
1.333876154e-61
4.445489015e-61
1.46895311e-60
4.812282873e-60
1.562755149e-59
5.031298716e-59
1.605928203e-58
5.082059306e-58
1.594569739e-57
4.961083499e-57
1.530733998e-56
4.684903e-56
1.422652309e-55
4.287958606e-55
1.28337906e-54
3.816453692e-54
1.128419408e-53
3.320085722e-53
9.72870662e-53
2.842095173e-52
8.288088947e-52
2.415503375e-51
7.043473273e-51
2.057010476e-50
6.021754078e-50
1.768085894e-49
5.208375554e-49
1.53922752e-48
4.561961994e-48
1.35512159e-47
4.031099569e-47
1.199701194e-46
3.568538889e-46
1.059838011e-45
3.139814343e-45
9.270947032e-45
2.726319721e-44
7.979684024e-44
2.32338054e-43
6.726552688e-43
1.935759635e-42
5.535770666e-42
1.572824924e-41
4.439030797e-41
1.244368962e-40
3.464380735e-40
9.578370977e-40
2.629852299e-39
7.170295928e-39
1.941370318e-38
5.219725335e-38
1.393672001e-37
3.695355263e-37
9.730758548e-37
2.54476386e-36
6.609630047e-36
1.705130664e-35
4.369327514e-35
1.112186421e-34
2.812424926e-34
7.065848999e-34
1.763900717e-33
4.375866183e-33
1.078938684e-32
2.644511926e-32
6.444625247e-32
1.561902448e-31
3.765595262e-31
9.03388549e-31
2.15744874e-30
5.131203888e-30
1.216005147e-29
2.873066339e-29
6.77265098e-29
1.594140783e-28
3.750371807e-28
8.828358974e-28
2.082138658e-27
4.926817769e-27
1.171394313e-26
2.802143407e-26
6.750884133e-26
1.638186822e-25
4.000124858e-25
9.803363265e-25
2.401993814e-24
5.854747356e-24
1.413050066e-23
3.369363926e-23
7.979271424e-23
1.651165851e-79
1.613715366e-78
1.058194229e-77
5.732750339e-77
2.776245417e-76
1.253545003e-75
5.413988901e-75
2.271622016e-74
9.347174254e-74
3.791492404e-73
1.520502918e-72
6.036915043e-72
2.374800052e-71
9.258812912e-71
3.578402202e-70
1.371008209e-69
5.207718539e-69
1.961207884e-68
7.322823772e-68
2.710798983e-67
9.950430059e-67
3.621647816e-66
1.307055246e-65
4.677361143e-65
1.659702513e-64
5.839529497e-64
2.03724494e-63
7.0472425e-63
2.417129989e-62
8.220054325e-62
2.77162578e-61
9.265531438e-61
3.071001031e-60
1.009095451e-59
3.286788591e-59
1.061336593e-58
3.397698898e-58
1.0783982e-57
3.393606311e-57
1.058949495e-56
3.277084998e-56
1.005991629e-55
3.064255289e-55
9.265051517e-55
2.782121649e-54
8.301843764e-54
2.463582018e-53
7.276734597e-53
2.141120178e-52
6.283264372e-52
1.841306901e-51
5.394745323e-51
1.581995276e-50
4.647938507e-50
1.369236965e-49
4.046524033e-49
1.199923704e-48
3.569695929e-48
1.064923965e-47
3.183525042e-47
9.528248486e-47
2.852335234e-46
8.531504494e-46
2.547132888e-45
7.58349947e-45
2.249725352e-44
6.645382937e-44
1.953339202e-43
5.710637967e-43
1.659833348e-42
4.794870704e-42
1.376296778e-41
3.92451174e-41
1.11156222e-40
3.126867887e-40
8.73533073e-40
2.423376288e-39
6.676071343e-39
1.82631018e-38
4.961162048e-38
1.338292585e-37
3.584959093e-37
9.53658381e-37
2.519359027e-36
6.609860445e-36
1.722340707e-35
4.457521409e-35
1.145887915e-34
2.926147067e-34
7.42320363e-34
1.87098111e-33
4.685747904e-33
1.166209071e-32
2.884881225e-32
7.09432235e-32
1.734673824e-31
4.218468414e-31
1.020583525e-30
2.457220424e-30
5.890002166e-30
1.406242277e-29
3.34593026e-29
7.93880494e-29
1.879764714e-28
4.44560596e-28
1.051211432e-27
2.488174374e-27
5.90344515e-27
1.40601448e-26
3.366835331e-26
8.11658554e-26
1.971853092e-25
4.827248308e-25
1.189382746e-24
2.940531786e-24
7.262781577e-24
1.782059421e-23
4.321266994e-23
1.032602441e-22
2.442942862e-22
4.816121306e-79
4.658128027e-78
3.022925245e-77
1.623525245e-76
7.814879335e-76
3.516902267e-75
1.517601986e-74
6.373911116e-74
2.628726259e-73
1.069578009e-72
4.304557329e-72
1.715516022e-71
6.774845371e-71
2.651800383e-70
1.028966184e-69
3.957985573e-69
1.509400227e-68
5.706840147e-68
2.139245776e-67
7.950446466e-67
2.929856841e-66
1.070567212e-65
3.878810459e-65
1.393459551e-64
4.963697894e-64
1.753176825e-63
6.139814449e-63
2.131989772e-62
7.340222021e-62
2.50561848e-61
8.47995208e-61
2.845340288e-60
9.465304293e-60
3.121480112e-59
1.020379365e-58
3.306699078e-58
1.062353912e-57
3.383757357e-57
1.068597291e-56
3.346285268e-56
1.039252507e-55
3.201799249e-55
9.788686201e-55
2.970950242e-54
8.956482772e-54
2.683711927e-53
7.999026809e-53
2.37382793e-52
7.019728049e-52
2.071272612e-51
6.105789537e-51
1.800289003e-50
5.315173584e-50
1.572821161e-49
4.668063774e-49
1.390168503e-48
4.154345178e-48
1.245453119e-47
3.743664436e-47
1.127362873e-46
3.397911201e-46
1.023982589e-45
3.082153543e-45
9.256841885e-45
2.771538969e-44
8.265915775e-44
2.454010646e-43
7.248182558e-43
2.128854033e-42
6.21532364e-42
1.80324276e-41
5.197776054e-41
1.488256836e-40
4.232318984e-40
1.195302321e-39
3.352332082e-39
9.336143432e-39
2.581839132e-38
7.089726944e-38
1.933181104e-37
5.23435207e-37
1.407370364e-36
3.757681762e-36
9.963496986e-36
2.623621411e-35
6.861335038e-35
1.782207463e-34
4.598094559e-34
1.178419176e-33
3.00027709e-33
7.589374146e-33
1.907587614e-32
4.764924687e-32
1.183013225e-31
2.919892297e-31
7.166131796e-31
1.749260972e-30
4.248246309e-30
1.026837628e-29
2.471235817e-29
5.92452316e-29
1.41570028e-28
3.374033809e-28
8.026671123e-28
1.907722084e-27
4.534910354e-27
1.079490671e-26
2.576949387e-26
6.178454322e-26
1.490277304e-25
3.621101807e-25
8.872124565e-25
2.191385213e-24
5.44844775e-24
1.358794159e-23
3.382330501e-23
8.350710829e-23
2.03298903e-22
4.863164099e-22
1.147657734e-21
1.581452991e-78
1.51214629e-77
9.705276907e-77
5.166101338e-76
2.471805258e-75
1.108933571e-74
4.782384051e-74
2.011083064e-73
8.314610507e-73
3.393848108e-72
1.370783014e-71
5.483760175e-71
2.174056579e-70
8.543104344e-70
3.328057969e-69
1.285201335e-68
4.920492251e-68
1.867663096e-67
7.028401055e-67
2.622317576e-66
9.70141692e-66
3.558686531e-65
1.294359334e-64
4.667916545e-64
1.669164656e-63
5.918010855e-63
2.080428275e-62
7.251364835e-62
2.505937373e-61
8.585981083e-61
2.916552162e-60
9.821970255e-60
3.279237135e-59
1.085311637e-58
3.560412621e-58
1.157895242e-57
3.733116305e-57
1.193226518e-56
3.781439697e-56
1.18831023e-55
3.703604996e-55
1.145138789e-54
3.513872821e-54
1.070551372e-53
3.240194738e-53
9.749515416e-53
2.918849089e-52
8.702682186e-52
2.586731985e-51
7.675171432e-51
2.276117332e-50
6.754382903e-50
2.007847285e-49
5.984355027e-49
1.789440097e-48
5.369826948e-48
1.617057051e-47
4.884786303e-47
1.479211055e-46
4.486376625e-46
1.361452313e-45
4.129415299e-45
1.250549484e-44
3.777546818e-44
1.137188097e-43
3.409131235e-43
1.017097656e-42
3.018255058e-42
8.905015486e-42
2.611251364e-41
7.608175227e-41
2.202114298e-40
6.33079916e-40
1.807532495e-39
5.124911823e-39
1.442894395e-38
4.033807525e-38
1.119749651e-37
3.086396282e-37
8.447208122e-37
2.295678675e-36
6.195181399e-36
1.660175167e-35
4.417999494e-35
1.167582227e-34
3.064507202e-34
7.988589194e-34
2.068447496e-33
5.320067487e-33
1.359335224e-32
3.450782349e-32
8.70447842e-32
2.182041196e-31
5.436886554e-31
1.346756913e-30
3.31726606e-30
8.127156266e-30
1.981083287e-29
4.806506508e-29
1.161206956e-28
2.794836185e-28
6.705517144e-28
1.604828493e-27
3.834505974e-27
9.155348171e-27
2.186908291e-26
5.23263478e-26
1.256090658e-25
3.029751798e-25
7.356027514e-25
1.800138526e-24
4.444472349e-24
1.106609575e-23
2.773795601e-23
6.971051823e-23
1.746962935e-22
4.334886721e-22
1.058203303e-21
2.530554552e-21
5.947843738e-21
5.451740131e-78
5.147688297e-77
3.265374674e-76
1.72229044e-75
8.191810412e-75
3.664678945e-74
1.579957561e-73
6.653935489e-73
2.758283619e-72
1.129579852e-71
4.579032592e-71
1.838791417e-70
7.318289617e-70
2.887027704e-69
1.129100969e-68
4.377319126e-68
1.682447288e-67
6.410890616e-67
2.421907903e-66
9.071447793e-66
3.36908113e-65
1.240630094e-64
4.52978063e-64
1.639861575e-63
5.886238427e-63
2.094884734e-62
7.392206933e-62
2.586234019e-61
8.970861464e-61
3.085014565e-60
1.051787082e-59
3.554958976e-59
1.191167304e-58
3.956382873e-58
1.302504538e-57
4.250848601e-57
1.375300804e-56
4.411267552e-56
1.402850743e-55
4.423889651e-55
1.383677572e-54
4.293696172e-54
1.322402256e-53
4.044338238e-53
1.228995444e-52
3.713640326e-52
1.11682311e-51
3.345899923e-51
9.997238687e-51
2.983143398e-50
8.900823175e-50
2.658637903e-49
7.958208375e-49
2.389225494e-48
7.198046613e-48
2.176546032e-47
6.604531482e-47
2.010109597e-46
6.131508474e-46
1.872706192e-45
5.720935699e-45
1.746181345e-44
5.31967136e-44
1.615958213e-43
4.890568035e-43
1.473536557e-42
4.417418198e-42
1.316933574e-41
3.902760209e-41
1.149355734e-40
3.362827798e-40
9.77328909e-40
2.820991411e-39
8.08617319e-39
2.301616853e-38
6.50504975e-38
1.825506516e-37
5.086585764e-37
1.407283333e-36
3.865947862e-36
1.054523358e-35
2.856219563e-35
7.682010024e-35
2.051736806e-34
5.441903223e-34
1.433455661e-33
3.750140576e-33
9.744734173e-33
2.515275787e-32
6.449615057e-32
1.643086289e-31
4.159289953e-31
1.04633934e-30
2.616342387e-30
6.503870166e-30
1.607709521e-29
3.952933617e-29
9.670521995e-29
2.354827792e-28
5.710091067e-28
1.379493822e-27
3.322461161e-27
7.982928129e-27
1.915155682e-26
4.591960603e-26
1.10172359e-25
2.648447787e-25
6.389485311e-25
1.549514746e-24
3.78429183e-24
9.319949692e-24
2.316911489e-23
5.810305164e-23
1.466957493e-22
3.711692675e-22
9.354947129e-22
2.330452782e-21
5.697468164e-21
1.360164614e-20
3.179099825e-20
1.922471827e-77
1.79046557e-76
1.12174125e-75
5.861193146e-75
2.771589242e-74
1.236722378e-73
5.331951877e-73
2.249452488e-72
9.351023205e-72
3.842441303e-71
1.563381175e-70
6.302025257e-70
2.517921249e-69
9.971873107e-69
3.915264381e-68
1.523782926e-67
5.879565351e-67
2.249068569e-66
8.529380101e-66
3.207191801e-65
1.195746151e-64
4.42017825e-64
1.620086162e-63
5.887403272e-63
2.121303627e-62
7.578175198e-62
2.684166034e-61
9.425914367e-61
3.281702828e-60
1.132710762e-59
3.875911145e-59
1.314777823e-58
4.421285158e-58
1.473700654e-57
4.868774585e-57
1.594553083e-56
5.176981709e-56
1.666300217e-55
5.31756973e-55
1.682776443e-54
5.281969671e-54
1.644984913e-53
5.085219929e-53
1.561251144e-52
4.763622753e-52
1.445617795e-51
4.367469102e-51
1.314878178e-50
3.94977578e-50
1.185436196e-49
3.559079564e-49
1.070175804e-48
3.226004605e-48
9.756461768e-48
2.961569918e-47
9.023637803e-47
2.758945857e-46
8.459416611e-46
2.598963687e-45
7.992448184e-45
2.457560452e-44
7.547412952e-44
2.312676582e-43
7.063800968e-43
2.148934624e-42
6.506834217e-42
1.95986804e-41
5.869362864e-41
1.74702972e-40
5.166879051e-40
1.518020575e-39
4.429705178e-39
1.283705187e-38
3.694109005e-38
1.055554663e-37
2.994750403e-37
8.436059359e-37
2.359472183e-36
6.55224619e-36
1.806648601e-35
4.946209775e-35
1.344611569e-34
3.629610563e-34
9.729225715e-34
2.589828551e-33
6.846373331e-33
1.797516813e-32
4.68746357e-32
1.214199085e-31
3.124416247e-31
7.987693031e-31
2.029093076e-30
5.122404825e-30
1.285324066e-29
3.206314331e-29
7.953512493e-29
1.962413668e-28
4.817759839e-28
1.177294146e-27
2.864895979e-27
6.946047054e-27
1.678987265e-26
4.048943769e-26
9.750085265e-26
2.346768544e-25
5.652949827e-25
1.3646001e-24
3.306781095e-24
8.05749481e-24
1.978027226e-23
4.898810389e-23
1.225200698e-22
3.091932945e-22
7.855763755e-22
1.999186292e-21
5.062479438e-21
1.264680744e-20
3.092684153e-20
7.360197646e-20
1.707897338e-19
6.843826936e-77
6.279214269e-76
3.882770988e-75
2.00944795e-74
9.448405507e-74
4.206556917e-73
1.81419355e-72
7.668995506e-72
3.197497557e-71
1.318454786e-70
5.38443017e-70
2.178794996e-69
8.738998603e-69
3.474440921e-68
1.369513174e-67
5.350628085e-67
2.07239322e-66
7.958014859e-66
3.029890398e-65
1.143725828e-64
4.280633423e-64
1.588444309e-63
5.844229527e-63
2.131877217e-62
7.710510911e-62
2.764890845e-61
9.829850039e-61
3.464772927e-60
1.210746311e-59
4.194329786e-59
1.440437967e-58
4.903865537e-58
1.65495466e-57
5.535694252e-57
1.835299722e-56
6.031769763e-56
1.965140024e-55
6.347130172e-55
2.032578059e-54
6.454776134e-54
2.033259448e-53
6.355291075e-53
1.972016847e-52
6.07813648e-52
1.862172382e-51
5.675857405e-51
1.722800662e-50
5.212608653e-50
1.574406126e-49
4.753217746e-49
1.436156917e-48
4.347643745e-48
1.319940993e-47
4.021525677e-47
1.229983542e-46
3.776190868e-46
1.163251982e-45
3.592911279e-45
1.111637494e-44
3.441580245e-44
1.064986955e-43
3.290373329e-43
1.013954855e-42
3.113634183e-42
9.520487235e-42
2.896724354e-41
8.765492085e-41
2.636801728e-40
7.882455382e-40
2.341061048e-39
6.906259241e-39
2.023418911e-38
5.886986436e-38
1.700708921e-37
4.878352252e-37
1.389337865e-36
3.928499411e-36
1.10288085e-35
3.074108221e-35
8.507598559e-35
2.337760328e-34
6.378357744e-34
1.728015574e-33
4.648715569e-33
1.241894388e-32
3.29477181e-32
8.681229945e-32
2.27186412e-31
5.905590913e-31
1.524981053e-30
3.912302689e-30
9.972919695e-30
2.526373664e-29
6.361133886e-29
1.592287485e-28
3.963359813e-28
9.812512161e-28
2.417220368e-27
5.926987756e-27
1.447214862e-26
3.52074608e-26
8.539200625e-26
2.06626963e-25
4.992735117e-25
1.205875319e-24
2.915027558e-24
7.062500117e-24
1.718005562e-23
4.203302064e-23
1.036428335e-22
2.579109779e-22
6.483716107e-22
1.645038373e-21
4.201992968e-21
1.07446924e-20
2.730794804e-20
6.833241985e-20
1.669329934e-19
3.954529067e-19
9.094454035e-19
2.439065939e-76
2.201833112e-75
1.342901914e-74
6.882853926e-74
3.218729956e-73
1.430310569e-72
6.172639924e-72
2.615120993e-71
1.093736283e-70
4.525893613e-70
1.855266327e-69
7.53607442e-69
3.034374833e-68
1.211082805e-67
4.791893203e-67
1.879360528e-66
7.307641747e-66
2.817056616e-65
1.076700589e-64
4.079973706e-64
1.532868752e-63
5.709836033e-63
2.108762817e-62
7.72153979e-62
2.803229831e-61
1.00897047e-60
3.600504211e-60
1.27378681e-59
4.46754931e-59
1.553315776e-58
5.353778905e-58
1.829203036e-57
6.195163571e-57
2.079462427e-56
6.918402869e-56
2.28168923e-55
7.459512475e-55
2.417668509e-54
7.769148183e-54
2.475867839e-53
7.826789935e-53
2.455326916e-52
7.647566069e-52
2.366450023e-51
7.28037153e-51
2.228887919e-50
6.796928209e-50
2.067150684e-49
6.278653966e-49
1.907003699e-48
5.799175136e-48
1.767635607e-47
5.405218777e-47
1.659102291e-46
5.11278707e-46
1.581563344e-45
4.908258524e-45
1.526949322e-44
4.75705021e-44
1.482456305e-43
4.615975584e-43
1.434517588e-42
4.445056723e-42
1.372134888e-41
4.216433758e-41
1.288997046e-40
3.918289493e-40
1.183869161e-39
3.554154434e-39
1.059958145e-38
3.139649133e-38
9.235367788e-38
2.697521678e-37
7.823176479e-37
2.252623769e-36
6.439760173e-36
1.827766998e-35
5.150419647e-35
1.440927533e-34
4.002472339e-34
1.103849056e-33
3.022717035e-33
8.218758975e-33
2.218977773e-32
5.949188142e-32
1.583956473e-31
4.188281967e-31
1.099931492e-30
2.869241953e-30
7.434994089e-30
1.914047987e-29
4.895968372e-29
1.244518093e-28
3.144251642e-28
7.897225573e-28
1.972319591e-27
4.899414878e-27
1.210928892e-26
2.978937369e-26
7.297433174e-26
1.781003071e-25
4.333335113e-25
1.051839041e-24
2.549431119e-24
6.176462428e-24
1.497666141e-23
3.639842354e-23
8.882681935e-23
2.18058943e-22
5.396265941e-22
1.348081308e-21
3.403285952e-21
8.672587602e-21
2.224869695e-20
5.710299433e-20
1.455008888e-19
3.642562939e-19
8.877869927e-19
2.090150997e-18
4.755186519e-18
8.648896933e-76
7.672060489e-75
4.612350351e-74
2.341064075e-73
1.08914497e-72
4.832537705e-72
2.087567553e-71
8.865884149e-71
3.719999236e-70
1.544876058e-69
6.35664312e-69
2.591945624e-68
1.047661375e-67
4.197558384e-67
1.667233981e-66
6.563977346e-66
2.562157155e-65
9.914926653e-65
3.80408576e-64
1.446999296e-63
5.457161238e-63
2.040468995e-62
7.564370078e-62
2.780226125e-61
1.013114519e-60
3.660100437e-60
1.310942228e-59
4.65492042e-59
1.638584224e-58
5.717806488e-58
1.977827065e-57
6.781679436e-57
2.304945437e-56
7.763469051e-56
2.591948415e-55
8.577927147e-55
2.814062144e-54
9.151997529e-54
2.951174384e-53
9.437720235e-53
2.994119903e-52
9.427208326e-52
2.947448208e-51
9.15695562e-51
2.829006983e-50
8.699948447e-50
2.665721117e-49
8.149942394e-49
2.489513409e-48
7.607712363e-48
2.32867429e-47
7.147302482e-47
2.201421419e-46
6.807561003e-46
2.113681248e-45
6.587375596e-45
2.059342381e-44
6.451973821e-44
2.023656189e-43
6.346897239e-43
1.988245059e-42
6.214237685e-42
1.935961863e-41
6.006653341e-41
1.854769294e-40
5.696568761e-40
1.739391794e-39
5.278127712e-39
1.591237037e-38
4.765036752e-38
1.417104629e-37
4.18493598e-37
1.227125373e-36
3.572530613e-36
1.032601793e-35
2.963128002e-35
8.441603396e-35
2.387582166e-34
6.704386177e-34
1.86911502e-33
5.173665917e-33
1.421863466e-32
3.879979935e-32
1.051309016e-31
2.828660618e-31
7.557942266e-31
2.005510021e-30
5.285357631e-30
1.383524184e-29
3.5975078e-29
9.29321187e-29
2.385244605e-28
6.083683742e-28
1.54220611e-27
3.886391203e-27
9.738262817e-27
2.426966985e-26
6.017746861e-26
1.485077182e-25
3.649242565e-25
8.933274306e-25
2.179947435e-24
5.306548414e-24
1.289750162e-23
3.133023893e-23
7.616755808e-23
1.855879748e-22
4.540742322e-22
1.117632261e-21
2.773474067e-21
6.949196453e-21
1.759974357e-20
4.499793132e-20
1.158109624e-19
2.980123868e-19
7.604239304e-19
1.902219966e-18
4.618967671e-18
1.078945783e-17
2.423420067e-17
3.036084286e-75
2.642843476e-74
1.565222021e-73
7.867641074e-73
3.642692826e-72
1.614481577e-71
6.983307351e-71
2.973645404e-70
1.251847109e-69
5.217662591e-69
2.154972032e-68
8.820467075e-68
3.578875866e-67
1.439402006e-66
5.73904182e-66
2.268120572e-65
8.887107276e-65
3.452199594e-64
1.329550524e-63
5.076515834e-63
1.921774145e-62
7.212695682e-62
2.683900929e-61
9.901307162e-61
3.621445693e-60
1.313162797e-59
4.720653829e-59
1.682339449e-58
5.943491149e-58
2.081419401e-57
7.22543074e-57
2.486263335e-56
8.479075406e-56
2.865916158e-55
9.601679914e-55
3.188584025e-54
1.049630481e-53
3.425359775e-53
1.108361219e-52
3.556871743e-52
1.132441858e-51
3.578671919e-51
1.123163495e-50
3.503431259e-50
1.086977685e-49
3.35764911e-49
1.033893807e-48
3.177917906e-48
9.76352902e-48
3.002192618e-47
9.250525039e-47
2.859110444e-46
8.870404626e-46
2.763471049e-45
8.644569957e-45
2.714068129e-44
8.545912507e-44
2.696034016e-43
8.511980449e-43
2.686359618e-42
8.465051058e-42
2.660458596e-41
8.331870202e-41
2.598010745e-40
8.060454838e-40
2.486899874e-39
7.626864304e-39
2.324197261e-38
7.03596847e-38
2.115491902e-37
6.316412057e-37
1.872637888e-36
5.512237461e-36
1.610905339e-35
4.673756073e-35
1.346197197e-34
3.84942449e-34
1.092774984e-33
3.079803671e-33
8.617504211e-33
2.393953684e-32
6.602950325e-32
1.808271347e-31
4.917109189e-31
1.327691021e-30
3.559980984e-30
9.479553567e-30
2.506957806e-29
6.585052845e-29
1.718160805e-28
4.453551828e-28
1.146938556e-27
2.93513418e-27
7.465234737e-27
1.88743016e-26
4.744712386e-26
1.186242714e-25
2.950512135e-25
7.303542997e-25
1.799985498e-24
4.418885104e-24
1.081260745e-23
2.638878833e-23
6.429407686e-23
1.565382228e-22
3.813758743e-22
9.31113095e-22
2.282484385e-21
5.628446739e-21
1.399380117e-20
3.513210483e-20
8.916500768e-20
2.284646576e-19
5.892036526e-19
1.518316487e-18
3.87499737e-18
9.673188178e-18
2.336651894e-17
5.405594828e-17
1.19607675e-16
1.050328446e-74
8.959494905e-74
5.224531746e-73
2.601004972e-72
1.198948344e-71
5.310275589e-71
2.300594347e-70
9.824035118e-70
4.149775756e-69
1.735923401e-68
7.196499014e-68
2.956730492e-67
1.204237909e-66
4.861749356e-66
1.9457707e-65
7.718972801e-65
3.035943588e-64
1.183765195e-63
4.57622195e-63
1.753862531e-62
6.664304876e-62
2.51053904e-61
9.376628097e-61
3.471972752e-60
1.274563546e-59
4.638579218e-59
1.673579418e-58
5.985846894e-58
2.122318037e-57
7.458820023e-57
2.598386552e-56
8.972335568e-56
3.07038525e-55
1.041373062e-54
3.500893751e-54
1.166564155e-53
3.853203303e-53
1.261737088e-52
4.096679967e-52
1.319253288e-51
4.215211965e-51
1.336962764e-50
4.212161274e-50
1.319211889e-49
4.110534923e-49
1.275525822e-48
3.947317748e-48
1.219881651e-47
3.769787133e-47
1.166464636e-46
3.618244568e-46
1.126181955e-45
3.519437114e-45
1.104566319e-44
3.480868041e-44
1.100830412e-43
3.490745968e-43
1.108710631e-42
3.522983248e-42
1.118609318e-41
3.545072018e-41
1.1201982e-40
3.526152302e-40
1.104864465e-39
3.443826749e-39
1.067268778e-38
3.287222705e-38
1.005933612e-37
3.057658161e-37
9.230148752e-37
2.766751641e-36
8.234385782e-36
2.433113584e-35
7.137467097e-35
2.078570911e-34
6.009234612e-34
1.724671532e-33
4.913953039e-33
1.389963109e-32
3.903299202e-32
1.088245441e-31
3.012319377e-31
8.278845889e-31
2.259179025e-30
6.121582381e-30
1.647142897e-29
4.401281014e-29
1.167981764e-28
3.078476068e-28
8.059659075e-28
2.09615438e-27
5.416367104e-27
1.390697327e-26
3.548688209e-26
9.001094467e-26
2.269921157e-25
5.6927569e-25
1.420234426e-24
3.525884521e-24
8.714141967e-24
2.145011773e-23
5.261846128e-23
1.287176012e-22
3.142752999e-22
7.6662757e-22
1.870861454e-21
4.574223971e-21
1.122690552e-20
2.771445944e-20
6.897227932e-20
1.733189248e-19
4.403010133e-19
1.129212035e-18
2.914447838e-18
7.511168414e-18
1.914868774e-17
4.763454748e-17
1.14286436e-16
2.613190819e-16
5.682174151e-16
3.565671097e-74
2.976270971e-73
1.707997958e-72
8.423532197e-72
3.867545303e-71
1.712565194e-70
7.433410534e-70
3.183634492e-69
1.349433393e-68
5.665503077e-68
2.357449059e-67
9.722048277e-67
3.974528757e-66
1.610617977e-65
6.470148701e-65
2.576350472e-64
1.017092328e-63
3.980616288e-63
1.54456335e-62
5.941600207e-62
2.266036777e-61
8.5679663e-61
3.211811405e-60
1.193617339e-59
4.397722075e-59
1.606275254e-58
5.816221147e-58
2.087710842e-57
7.428394727e-57
2.619857111e-56
9.158446382e-56
3.173396373e-55
1.089629744e-54
3.708316673e-54
1.250897497e-53
4.18229373e-53
1.386079411e-52
4.554069652e-52
1.483680971e-51
4.794444761e-51
1.537335841e-50
4.89397847e-50
1.54780466e-49
4.867376954e-49
1.523019128e-48
4.748244029e-48
1.476903269e-47
4.589268259e-47
1.426607346e-46
4.442282227e-46
1.387226797e-45
4.348194226e-45
1.368722406e-44
4.327269323e-44
1.373641224e-43
4.375257801e-43
1.396988289e-42
4.466325839e-42
1.428078592e-41
4.561180515e-41
1.453565638e-40
4.617233109e-40
1.460649227e-39
4.598410779e-39
1.439811372e-38
4.481567096e-38
1.38616893e-37
4.259292113e-37
1.299862431e-36
3.939346984e-36
1.185401468e-35
3.541470447e-35
1.050395821e-34
3.092835608e-34
9.040362188e-34
2.623229366e-33
7.556292833e-33
2.160771147e-32
6.134046063e-32
1.728749248e-31
4.836981279e-31
1.343653551e-30
3.705837138e-30
1.014819683e-29
2.759401575e-29
7.45051668e-29
1.997692345e-28
5.319488392e-28
1.406834772e-27
3.695606486e-27
9.643640128e-27
2.500118223e-26
6.440263419e-26
1.648687719e-25
4.195106441e-25
1.061226714e-24
2.669540929e-24
6.679583665e-24
1.662964391e-23
4.121010864e-23
1.016951702e-22
2.500422608e-22
6.129403385e-22
1.499273981e-21
3.662860879e-21
8.949647023e-21
2.190129354e-20
5.378474607e-20
1.328075089e-19
3.305194601e-19
8.304103576e-19
2.108968387e-18
5.406516561e-18
1.394534493e-17
3.589469494e-17
9.127920316e-17
2.259352581e-16
5.374635286e-16
1.211960708e-15
2.582656631e-15
1.182838482e-73
9.646697337e-73
5.44589699e-72
2.661464291e-71
1.217774087e-70
5.393395033e-70
2.346023011e-69
1.007866188e-68
4.286817794e-68
1.806323998e-67
7.543885756e-67
3.122595109e-66
1.281293792e-65
5.211472764e-65
2.101270482e-64
8.397959299e-64
3.327578443e-63
1.307117224e-62
5.090514636e-62
1.965381549e-61
7.523028649e-61
2.854832541e-60
1.074048449e-59
4.005926769e-59
1.481226704e-58
5.429513733e-58
1.972968071e-57
7.106878685e-57
2.537598481e-56
8.980612489e-56
3.150199012e-55
1.095164226e-54
3.773262021e-54
1.288508817e-53
4.360990122e-53
1.462925662e-52
4.864508791e-52
1.60361431e-51
5.24210196e-51
1.699787501e-50
5.469621256e-50
1.747594357e-49
5.548342594e-49
1.751766041e-48
5.505331441e-48
1.724515057e-47
5.391380713e-47
1.684555367e-46
5.267780013e-46
1.650788555e-45
5.189840921e-45
1.638173145e-44
5.193808785e-44
1.653963216e-43
5.288039366e-43
1.696115622e-42
5.452050367e-42
1.754262243e-41
5.643184182e-41
1.812707421e-40
5.807937545e-40
1.854293316e-39
5.894390532e-39
1.86423129e-38
5.862929745e-38
1.832685801e-37
5.692033085e-37
1.756047285e-36
5.380300338e-36
1.636866827e-35
4.944354559e-35
1.482730092e-34
4.414163436e-34
1.304530929e-33
3.827125045e-33
1.114553789e-32
3.2221171e-32
9.24697607e-32
2.634433526e-31
7.450960395e-31
2.092117359e-30
5.832059784e-30
1.614119661e-29
4.435520671e-29
1.21023104e-28
3.278901311e-28
8.821644277e-28
2.356999733e-27
6.254469195e-27
1.648459115e-26
4.315843855e-26
1.122542079e-25
2.900985927e-25
7.450057776e-25
1.901598127e-24
4.825117892e-24
1.217370908e-23
3.054749174e-23
7.625912039e-23
1.89463123e-22
4.686503149e-22
1.154749814e-21
2.835963546e-21
6.947581077e-21
1.699376088e-20
4.155451988e-20
1.017281785e-19
2.498003402e-19
6.164893923e-19
1.532790421e-18
3.845954372e-18
9.751726251e-18
2.495319224e-17
6.422595952e-17
1.648548244e-16
4.175251237e-16
1.026620401e-15
2.416744139e-15
5.361078918e-15
1.116108782e-14
3.817601964e-73
3.037337818e-72
1.686264821e-71
8.169558776e-71
3.727274559e-70
1.651787328e-69
7.201937223e-69
3.103786338e-68
1.324730818e-67
5.602050823e-67
2.348112538e-66
9.754839312e-66
4.017277965e-65
1.639920198e-64
6.636161863e-64
2.661854681e-63
1.05855119e-62
4.173195443e-62
1.631103526e-61
6.320167566e-61
2.427900952e-60
9.246357159e-60
3.491076877e-59
1.306704621e-58
4.848712347e-58
1.783560349e-57
6.503692469e-57
2.350843458e-56
8.422915699e-56
2.991015667e-55
1.052718138e-54
3.671926046e-54
1.269354821e-53
4.349027281e-53
1.476785768e-52
4.970234252e-52
1.658121953e-51
5.48413838e-51
1.798715467e-50
5.852340077e-50
1.889792455e-49
6.060115147e-49
1.931380627e-48
6.122709878e-48
1.932641182e-47
6.082577619e-47
1.911368541e-46
6.005328534e-46
1.889173038e-45
5.958031385e-45
1.885738582e-44
5.993944243e-44
1.913920987e-43
6.1383932e-43
1.976369442e-42
6.382390342e-42
2.064999664e-41
6.685683172e-41
2.163308853e-40
6.987451624e-40
2.250473531e-39
7.220552803e-39
2.306029117e-38
7.32603294e-38
2.313934709e-37
7.263219825e-37
2.264968652e-36
7.015246861e-36
2.157701543e-35
6.589442048e-35
1.997894679e-34
6.013590447e-34
1.796854685e-33
5.329642277e-33
1.569219019e-32
4.586364858e-32
1.330626007e-31
3.83224053e-31
1.095644255e-30
3.109676064e-30
8.761960077e-30
2.450989733e-29
6.806933495e-29
1.876931517e-28
5.138680429e-28
1.396954271e-27
3.771068031e-27
1.010939354e-26
2.691508048e-26
7.117222589e-26
1.869442016e-25
4.878061933e-25
1.264650794e-24
3.257940866e-24
8.341313426e-24
2.122867162e-23
5.371507623e-23
1.351623972e-22
3.383109064e-22
8.425861612e-22
2.088860837e-21
5.157090959e-21
1.268643501e-20
3.111972368e-20
7.618584496e-20
1.863706062e-19
4.561906999e-19
1.119411885e-18
2.759001343e-18
6.846491633e-18
1.713577287e-17
4.331908985e-17
1.104723287e-16
2.832668219e-16
7.238621967e-16
1.822793428e-15
4.444232891e-15
1.033089752e-14
2.248140202e-14
4.556118152e-14
1.193275034e-72
9.246981843e-72
5.047675489e-71
2.425553603e-70
1.104093547e-69
4.897888222e-69
2.140957349e-68
9.256444159e-68
3.964358185e-67
1.682398473e-66
7.076915322e-66
2.950504993e-65
1.219426334e-64
4.995687223e-64
2.028759156e-63
8.166640992e-63
3.259217352e-62
1.289468269e-61
5.057763405e-61
1.966696932e-60
7.581691762e-60
2.897529603e-59
1.097823041e-58
4.123440753e-58
1.535357322e-57
5.667131956e-57
2.073572397e-56
7.520707904e-56
2.703720333e-55
9.632939463e-55
3.401622624e-54
1.190376251e-53
4.128563398e-53
1.419118629e-52
4.834423743e-52
1.632303081e-51
5.463102798e-51
1.81275963e-50
5.965170568e-50
1.947379298e-49
6.310195254e-49
2.030870789e-48
6.497214374e-48
2.068078126e-47
6.556534018e-47
2.073324149e-46
6.548675438e-46
2.068987766e-45
6.547666787e-45
2.078156024e-44
6.621476931e-44
2.11923558e-43
6.814403015e-43
2.200829304e-42
7.134583079e-42
2.31928028e-41
7.551476009e-41
2.459560754e-40
8.003582583e-40
2.598944654e-39
8.41268857e-39
2.712066336e-38
8.700902362e-38
2.776220001e-37
8.805453295e-37
2.775160316e-36
8.688257248e-36
2.701389008e-35
8.340238072e-35
2.556545217e-34
7.77990807e-34
2.350257661e-33
7.047899579e-33
2.09796067e-32
6.199038793e-32
1.818197464e-31
5.293600556e-31
1.529897756e-30
4.389194554e-30
1.25005145e-29
3.534302126e-29
9.920324623e-29
2.764458936e-28
7.648448552e-28
2.101040912e-27
5.730787397e-27
1.552159472e-26
4.174715519e-26
1.115105503e-25
2.958269106e-25
7.795296372e-25
2.040543082e-24
5.306748816e-24
1.371318125e-23
3.521592554e-23
8.9888172e-23
2.280907981e-22
5.75499017e-22
1.444155904e-21
3.605265665e-21
8.956842785e-21
2.215377186e-20
5.457982866e-20
1.340296892e-19
3.283280045e-19
8.032275001e-19
1.965005564e-18
4.815608658e-18
1.184464085e-17
2.930788087e-17
7.308377884e-17
1.839388762e-16
4.667355901e-16
1.190139975e-15
3.022312513e-15
7.552757189e-15
1.822373857e-14
4.173068622e-14
8.880690195e-14
1.744874654e-13
3.594251484e-72
2.708434755e-71
1.453609031e-70
6.932450726e-70
3.150263297e-69
1.399417674e-68
6.133520767e-68
2.660397749e-67
1.143264742e-66
4.86866126e-66
2.055097704e-65
8.598067616e-65
3.565913899e-64
1.465966544e-63
5.973968294e-63
2.413161575e-62
9.66412831e-62
3.836764502e-61
1.510122638e-60
5.892340754e-60
2.279331369e-59
8.740906371e-59
3.323087309e-58
1.25240296e-57
4.679071444e-57
1.732892029e-56
6.361751743e-56
2.315034323e-55
8.349241092e-55
2.98433117e-54
1.057248905e-53
3.711939056e-53
1.291560938e-52
4.453616335e-52
1.521977016e-51
5.155028387e-51
1.730773524e-50
5.761338795e-50
1.901998219e-49
6.229831891e-49
2.025615761e-48
6.542644561e-48