/*--------------------------------*- C++ -*----------------------------------*\
  =========                 |
  \\      /  F ield         | OpenFOAM: The Open Source CFD Toolbox
   \\    /   O peration     | Website:  https://openfoam.org
    \\  /    A nd           | Version:  7
     \\/     M anipulation  |
\*---------------------------------------------------------------------------*/
FoamFile
{
    version     2.0;
    format      ascii;
    class       volScalarField;
    location    "0.361";
    object      Y_C2H6;
}
// * * * * * * * * * * * * * * * * * * * * * * * * * * * * * * * * * * * * * //

dimensions      [0 0 0 0 0 0 0];

internalField   nonuniform List<scalar> 
35870
(
1.370453629e-82
1.425741436e-81
9.78301102e-81
5.476460158e-80
2.709101358e-79
1.236689355e-78
5.353426752e-78
2.236398571e-77
9.118714064e-77
3.653940014e-76
1.444816018e-75
5.64992155e-75
2.187710443e-74
8.392858651e-74
3.19122577e-73
1.202815821e-72
4.494606458e-72
1.665171529e-71
6.116936989e-71
2.228096405e-70
8.047888683e-70
2.882647658e-69
1.02395919e-68
3.607167146e-68
1.260251474e-67
4.366801296e-67
1.500703136e-66
5.115114463e-66
1.72921837e-65
5.79799571e-65
1.928139447e-64
6.359543633e-64
2.080333238e-63
6.749133179e-63
2.171496876e-62
6.92860942e-62
2.192236874e-61
6.877935377e-61
2.139586304e-60
6.598895726e-60
2.017663826e-59
6.11542586e-59
1.837250612e-58
5.470628128e-58
1.61435127e-57
4.720834687e-57
1.367956197e-56
3.927692982e-56
1.117392359e-55
3.149781776e-55
8.797935712e-55
2.435290633e-54
6.681348884e-54
1.817322948e-53
4.902456662e-53
1.3122847e-52
3.487931806e-52
9.213319789e-52
2.421368576e-51
6.340308393e-51
1.656916644e-50
4.330043421e-50
1.134090864e-49
2.983907428e-49
7.905074923e-49
2.112952711e-48
5.706867814e-48
1.558772026e-47
4.305674444e-47
1.201777275e-46
3.384510648e-46
9.599108169e-46
2.735993022e-45
7.820521939e-45
2.237416072e-44
6.395949565e-44
1.824255986e-43
5.185393461e-43
1.467548963e-42
4.132480131e-42
1.157181086e-41
3.220987666e-41
8.909361846e-41
2.448410152e-40
6.684080917e-40
1.81251799e-39
4.881887634e-39
1.306034971e-38
3.47050641e-38
9.16057244e-38
2.402012484e-37
6.257381835e-37
1.619673536e-36
4.166247631e-36
1.065182402e-35
2.707443729e-35
6.843272648e-35
1.720571257e-34
4.30470978e-34
1.072179447e-33
2.659886088e-33
6.576501883e-33
1.621686538e-32
3.991593752e-32
9.816437455e-32
2.414909212e-31
5.950686766e-31
1.471119452e-30
3.655071778e-30
9.144126094e-30
2.30746402e-29
5.881172243e-29
1.514396806e-28
3.935154618e-28
1.028577406e-27
2.691095166e-27
7.003710752e-27
1.802563827e-26
4.574236101e-26
1.151040604e-25
2.931406068e-82
3.024140606e-81
2.056733181e-80
1.142318974e-79
5.616913666e-79
2.554126847e-78
1.103636522e-77
4.610079095e-77
1.882061697e-76
7.557702621e-76
2.996524646e-75
1.175342453e-74
4.565720142e-74
1.757377387e-73
6.704565218e-73
2.535586086e-72
9.506995063e-72
3.534140249e-71
1.302668796e-70
4.761110133e-70
1.72556313e-69
6.201740308e-69
2.210431589e-68
7.813233292e-68
2.738986429e-67
9.522717139e-67
3.283626021e-66
1.122977544e-65
3.809056794e-65
1.281419168e-64
4.275537567e-64
1.414845932e-63
4.643421745e-63
1.511349664e-62
4.878388316e-62
1.561529966e-61
4.9563771e-61
1.559881171e-60
4.867458913e-60
1.505787629e-59
4.617859912e-59
1.403771043e-58
4.229535363e-58
1.262968022e-57
3.737317142e-57
1.095881034e-56
3.184022582e-56
9.165976848e-56
2.614363762e-55
7.388291038e-55
2.068893879e-54
5.741176982e-54
1.579125867e-53
4.306371989e-53
1.164832819e-52
3.126919069e-52
8.336715712e-52
2.209632227e-51
5.829432634e-51
1.5331154e-50
4.026783179e-50
1.058501607e-49
2.791136898e-49
7.400597923e-49
1.977596739e-48
5.336058945e-48
1.455732723e-47
4.017418622e-47
1.121180521e-46
3.160740957e-46
8.985693338e-46
2.570836926e-45
7.386145432e-45
2.126540279e-44
6.123793312e-44
1.760969819e-43
5.049904675e-43
1.442600942e-42
4.101818488e-42
1.160104373e-41
3.262104144e-41
9.116403351e-41
2.531412339e-40
6.982949028e-40
1.913381134e-39
5.207410883e-39
1.407628569e-38
3.779219435e-38
1.007808017e-37
2.669560661e-37
7.024621012e-37
1.836423221e-36
4.770303309e-36
1.231437756e-35
3.159771103e-35
8.06077768e-35
2.045009502e-34
5.161250979e-34
1.296350806e-33
3.241903871e-33
8.076415497e-33
2.005668598e-32
4.968668184e-32
1.228998886e-31
3.038317451e-31
7.516711022e-31
1.863543491e-30
4.637727546e-30
1.16065399e-29
2.926888261e-29
7.450149793e-29
1.916765095e-28
4.984704884e-28
1.30844649e-27
3.453729945e-27
9.117007941e-27
2.390129611e-26
6.182720932e-26
1.572308852e-25
3.950862402e-25
9.292344035e-82
9.482360679e-81
6.376830789e-80
3.507220507e-79
1.711949533e-78
7.748949403e-78
3.34169007e-77
1.396066049e-76
5.709174279e-76
2.298877738e-75
9.145537947e-75
3.600568944e-74
1.404158778e-73
5.426366482e-73
2.078611427e-72
7.893055175e-72
2.971521298e-71
1.109140136e-70
4.104915385e-70
1.506407462e-69
5.48185733e-69
1.97819512e-68
7.079271766e-68
2.512426605e-67
8.842994267e-67
3.086819073e-66
1.06865849e-65
3.66930469e-65
1.249539155e-64
4.220209999e-64
1.413624655e-63
4.696146227e-63
1.547202948e-62
5.055180938e-62
1.637929429e-61
5.262581359e-61
1.676577471e-60
5.295912878e-60
1.658514458e-59
5.149014883e-59
1.584597209e-58
4.833534911e-58
1.461245876e-57
4.377799153e-57
1.299651286e-56
3.823002791e-56
1.114201145e-55
3.217262279e-55
9.203920581e-55
2.608744712e-54
7.326511622e-54
2.039070549e-53
5.625162337e-53
1.538685997e-52
4.175220979e-52
1.124600084e-51
3.009325386e-51
8.008689905e-51
2.122588421e-50
5.611846188e-50
1.482992168e-49
3.925900787e-49
1.0436519e-48
2.79279577e-48
7.539572342e-48
2.056950382e-47
5.676892717e-47
1.585183096e-46
4.475391533e-46
1.275707577e-45
3.664430372e-45
1.058412128e-44
3.067209938e-44
8.899839016e-44
2.580986822e-43
7.46952104e-43
2.154591395e-42
6.18838926e-42
1.768498758e-41
5.025761486e-41
1.419660014e-40
3.984901419e-40
1.111236851e-39
3.078132567e-39
8.468758498e-39
2.314104158e-38
6.280166622e-38
1.692744842e-37
4.531708396e-37
1.205066016e-36
3.183291412e-36
8.354255398e-36
2.178537421e-35
5.645758856e-35
1.454345184e-34
3.724840455e-34
9.487846738e-34
2.404360121e-33
6.064258482e-33
1.523053851e-32
3.811125785e-32
9.507974928e-32
2.366743278e-31
5.88375362e-31
1.462363739e-30
3.638544016e-30
9.076097923e-30
2.273785884e-29
5.731703002e-29
1.456868663e-28
3.740349747e-28
9.712879765e-28
2.550668614e-27
6.762063372e-27
1.801924466e-26
4.797054303e-26
1.26596831e-25
3.288323839e-25
8.369907084e-25
2.096754154e-24
3.312823626e-81
3.340385905e-80
2.219741104e-79
1.208593574e-78
5.856433531e-78
2.639310423e-77
1.136291355e-76
4.749186477e-76
1.945951371e-75
7.858320713e-75
3.137083181e-74
1.239705424e-73
4.853607759e-73
1.883160522e-72
7.242659976e-72
2.76133911e-71
1.043774589e-70
3.911698538e-70
1.45356574e-69
5.355753813e-69
1.956825357e-68
7.089826838e-68
2.547384132e-67
9.07681847e-67
3.207522557e-66
1.124101534e-65
3.907071269e-65
1.346810807e-64
4.604423526e-64
1.56117875e-63
5.2497164e-63
1.7507128e-62
5.790013636e-62
1.898950759e-61
6.175911603e-61
1.991663432e-60
6.368436848e-60
2.018929417e-59
6.345239336e-59
1.976864438e-58
6.104775002e-58
1.868470503e-57
5.667438743e-57
1.703461643e-56
5.073260371e-56
1.496993866e-55
4.376296128e-55
1.267457173e-54
3.636649876e-54
1.033778181e-53
2.911747221e-53
8.127448175e-53
2.248758023e-52
6.169980562e-52
1.679601149e-51
4.53960575e-51
1.219340334e-50
3.258714533e-50
8.678246232e-50
2.307119062e-49
6.135953414e-49
1.636427356e-48
4.387270931e-48
1.185284575e-47
3.233595594e-47
8.921304811e-47
2.490864677e-46
7.036613124e-46
2.009176966e-45
5.788657478e-45
1.679310299e-44
4.894416823e-44
1.430005207e-43
4.180018558e-43
1.220335866e-42
3.553252224e-42
1.030684177e-41
2.975737328e-41
8.545598169e-41
2.439798192e-40
6.922567845e-40
1.951488661e-39
5.464743496e-39
1.519936549e-38
4.198574681e-38
1.15182036e-37
3.138150182e-37
8.491412174e-37
2.282048362e-36
6.091717332e-36
1.615346144e-35
4.255535689e-35
1.113957472e-34
2.897917932e-34
7.493728733e-34
1.926707614e-33
4.926846361e-33
1.253475309e-32
3.174216862e-32
8.004847174e-32
2.011472647e-31
5.03997369e-31
1.260195089e-30
3.147548941e-30
7.861493236e-30
1.966240582e-29
4.931937572e-29
1.242990283e-28
3.15368941e-28
8.073006128e-28
2.088690476e-27
5.469236822e-27
1.448858809e-26
3.875203262e-26
1.041322812e-25
2.792426899e-25
7.40897782e-25
1.929819835e-24
4.909192606e-24
1.224075856e-23
1.239089805e-80
1.2331365e-79
8.091235944e-79
4.359917487e-78
2.097349103e-77
9.413317663e-77
4.047270021e-76
1.692845187e-75
6.951508401e-75
2.815788713e-74
1.128073477e-73
4.474848788e-73
1.758858359e-72
6.851438452e-72
2.645657934e-71
1.012740807e-70
3.843535349e-70
1.44621481e-69
5.395676115e-69
1.996050327e-68
7.322193163e-68
2.663538707e-67
9.608359825e-67
3.437280668e-66
1.219476015e-65
4.290670517e-65
1.497204187e-64
5.181299854e-64
1.778287244e-63
6.052911443e-63
2.043254445e-62
6.840135629e-62
2.2708049e-61
7.475665496e-61
2.440377491e-60
7.899029572e-60
2.534971276e-59
8.065334944e-59
2.543825835e-58
7.952974076e-58
2.464389665e-57
7.568073164e-57
2.303120387e-56
6.944863238e-56
2.074870251e-55
6.141406565e-55
1.800825974e-54
5.231091854e-54
1.505341077e-53
4.291632339e-53
1.212292087e-52
3.393716825e-52
9.417988735e-52
2.592040798e-51
7.079201079e-51
1.920129116e-50
5.177630747e-50
1.38982558e-49
3.719887441e-49
9.94703173e-49
2.663394425e-48
7.158670779e-48
1.936352339e-47
5.283452294e-47
1.457013004e-46
4.065805311e-46
1.148454847e-45
3.281838497e-45
9.474645029e-45
2.758102465e-44
8.077713925e-44
2.374671886e-43
6.992313845e-43
2.058321753e-42
6.047593276e-42
1.771172526e-41
5.165349226e-41
1.498836642e-40
4.324809843e-40
1.240362671e-39
3.534745716e-39
1.000680169e-38
2.813793029e-38
7.857881776e-38
2.179273104e-37
6.002084025e-37
1.641650926e-36
4.459256244e-36
1.203015384e-35
3.223596135e-35
8.580524641e-35
2.269053181e-34
5.962085155e-34
1.55687626e-33
4.041162246e-33
1.042964412e-32
2.677172768e-32
6.837378259e-32
1.738176342e-31
4.400649954e-31
1.110230465e-30
2.793188637e-30
7.013397959e-30
1.759308758e-29
4.413938314e-29
1.109191264e-28
2.796103756e-28
7.084758574e-28
1.807925449e-27
4.657252157e-27
1.213213923e-26
3.200379888e-26
8.544066884e-26
2.30317967e-25
6.234209851e-25
1.682069924e-24
4.481451649e-24
1.168992932e-23
2.967650181e-23
7.352965418e-23
4.738653387e-80
4.648899148e-79
3.009697668e-78
1.604515518e-77
7.663110151e-77
3.426219442e-76
1.47165718e-75
6.162029703e-75
2.536500729e-74
1.030726769e-73
4.144361655e-73
1.650306799e-72
6.512234695e-72
2.546889668e-71
9.874178936e-71
3.79494434e-70
1.44603899e-69
5.462875331e-69
2.046321688e-68
7.600371968e-68
2.799229588e-67
1.022318924e-66
3.702574182e-66
1.329816454e-65
4.736611277e-65
1.673136045e-64
5.861281851e-64
2.036329481e-63
7.016183258e-63
2.397416069e-62
8.124026391e-62
2.730055208e-61
9.097692896e-61
3.006293385e-60
9.850357358e-60
3.200102622e-59
1.030714967e-58
3.291103904e-58
1.041685952e-57
3.268015145e-57
1.016113645e-56
3.130896029e-56
9.559199807e-56
2.891751085e-55
8.666653999e-55
2.573140251e-54
7.567916116e-54
2.20487577e-53
6.363493685e-53
1.819458216e-52
5.154493596e-52
1.447197196e-51
4.028251164e-51
1.112151314e-50
3.047607474e-50
8.296348237e-50
2.246194895e-49
6.057206909e-49
1.629814486e-48
4.384953447e-48
1.182486461e-47
3.204409607e-47
8.748350638e-47
2.411663373e-46
6.724430817e-46
1.898157612e-45
5.424159498e-45
1.567652377e-44
4.574680406e-44
1.345048446e-43
3.975296607e-43
1.178312792e-42
3.495443167e-42
1.035878793e-41
3.062174677e-41
9.018700191e-41
2.643897744e-40
7.709451678e-40
2.234873074e-39
6.438237709e-39
1.842651273e-38
5.238361499e-38
1.478996696e-37
4.146900342e-37
1.154642284e-36
3.192530294e-36
8.765850651e-36
2.390241887e-35
6.472988212e-35
1.741077923e-34
4.651859739e-34
1.234767612e-33
3.256570741e-33
8.535593863e-33
2.223823722e-32
5.760723867e-32
1.484220762e-31
3.804782755e-31
9.708636559e-31
2.467260421e-30
6.248241586e-30
1.57801078e-29
3.97765252e-29
1.00175921e-28
2.52356516e-28
6.368338678e-28
1.612453797e-27
4.104801694e-27
1.052753674e-26
2.72676187e-26
7.14543977e-26
1.897064187e-25
5.098746237e-25
1.383758569e-24
3.768752885e-24
1.021953019e-23
2.730678355e-23
7.123944296e-23
1.80206702e-22
4.42919875e-22
1.828590521e-79
1.766268652e-78
1.127385969e-77
5.944886544e-77
2.819211123e-76
1.256083639e-75
5.391902831e-75
2.260770916e-74
9.330631868e-74
3.80420709e-73
1.535269149e-72
6.137207859e-72
2.431378913e-71
9.546871753e-71
3.716102327e-70
1.433930202e-69
5.485816478e-69
2.080738857e-68
7.825334117e-68
2.918061075e-67
1.079014126e-66
3.956399899e-66
1.438598773e-65
5.18734124e-65
1.85495563e-64
6.578145595e-64
2.31347612e-63
8.068871929e-63
2.790935789e-62
9.573411676e-62
3.256555995e-61
1.098526052e-60
3.674585667e-60
1.2187986e-59
4.008288347e-59
1.306948977e-58
4.224748649e-58
1.353783833e-57
4.29997728e-57
1.353659562e-56
4.223152006e-56
1.305581051e-55
3.999157206e-55
1.213641145e-54
3.648668346e-54
1.086605812e-53
3.205424284e-53
9.366417501e-53
2.711117242e-52
7.774116225e-52
2.208794937e-51
6.219809803e-51
1.736544942e-50
4.809727319e-50
1.322526096e-49
3.613813306e-49
9.825557132e-49
2.662390613e-48
7.203645581e-48
1.950674373e-47
5.29988776e-47
1.448583267e-46
3.993100662e-46
1.11247578e-45
3.13695496e-45
8.957814245e-45
2.589361965e-44
7.566996178e-44
2.231292699e-43
6.623638735e-43
1.974736532e-42
5.899446114e-42
1.762497927e-41
5.256798543e-41
1.563100087e-40
4.62859264e-40
1.363770945e-39
3.995664718e-39
1.163567417e-38
3.366696358e-38
9.676533972e-38
2.762269523e-37
7.830610877e-37
2.204353186e-36
6.161848024e-36
1.710351329e-35
4.714275617e-35
1.290385004e-34
3.507731773e-34
9.470492602e-34
2.539822758e-33
6.766667513e-33
1.791241056e-32
4.712191373e-32
1.232189847e-31
3.203579708e-31
8.283844118e-31
2.131241484e-30
5.457896759e-30
1.392009458e-29
3.537867548e-29
8.967037732e-29
2.268412098e-28
5.733526291e-28
1.449607314e-27
3.671719619e-27
9.332212295e-27
2.3851872e-26
6.143215987e-26
1.598479885e-25
4.209658334e-25
1.123679674e-24
3.037198766e-24
8.28937843e-24
2.269068589e-23
6.176525761e-23
1.653118993e-22
4.307433067e-22
1.084009763e-21
2.638168047e-21
7.060344623e-79
6.705809448e-78
4.216886656e-77
2.199028587e-76
1.035668523e-75
4.5999727e-75
1.974136991e-74
8.291267486e-74
3.43166045e-73
1.403945866e-72
5.687211995e-72
2.282301536e-71
9.077600823e-71
3.578526866e-70
1.398499391e-69
5.417925136e-69
2.081016351e-68
7.924639847e-68
2.992210109e-67
1.120231501e-66
4.158751084e-66
1.530927036e-65
5.58868148e-65
2.023135313e-64
7.263056638e-64
2.585764244e-63
9.129429076e-63
3.196514417e-62
1.109917213e-61
3.821857608e-61
1.305036422e-60
4.418941754e-60
1.483700351e-59
4.939523929e-59
1.630458271e-58
5.33565893e-58
1.730965667e-57
5.56637606e-57
1.774192843e-56
5.604406398e-56
1.754345243e-55
5.441415298e-55
1.672157049e-54
5.090613708e-54
1.535171092e-53
4.585742103e-53
1.35679938e-52
3.97625584e-52
1.154268192e-51
3.319425533e-51
9.458649887e-51
2.671394571e-50
7.481385582e-50
2.07887727e-49
5.736406519e-49
1.573585309e-48
4.297228135e-48
1.170284299e-47
3.185002679e-47
8.683466484e-47
2.377859489e-46
6.557691905e-46
1.82580222e-45
5.142032701e-45
1.466519612e-44
4.23633902e-44
1.23851295e-43
3.658653731e-43
1.089729442e-42
3.264741326e-42
9.814546861e-42
2.954090069e-41
8.885378751e-41
2.666458947e-40
7.97344025e-40
2.373426965e-39
7.027422553e-39
2.068529813e-38
6.050587113e-38
1.758233437e-37
5.074660298e-37
1.454544165e-36
4.139976537e-36
1.170034793e-35
3.283390883e-35
9.148984839e-35
2.53141217e-34
6.955261131e-34
1.897814532e-33
5.143051474e-33
1.384397151e-32
3.701939569e-32
9.83544565e-32
2.596788329e-31
6.814794459e-31
1.778113533e-30
4.614145021e-30
1.191276855e-29
3.061328285e-29
7.83453701e-29
1.997925242e-28
5.080795362e-28
1.289517096e-27
3.269856859e-27
8.293575756e-27
2.107363216e-26
5.373291095e-26
1.377843363e-25
3.560877131e-25
9.299499704e-25
2.458765813e-24
6.591457354e-24
1.789632939e-23
4.906315432e-23
1.348190603e-22
3.67947348e-22
9.851512448e-22
2.560159522e-21
6.39914881e-21
1.539092117e-20
2.710618726e-78
2.528125295e-77
1.56515257e-76
8.070711134e-76
3.775906756e-75
1.672556153e-74
7.179125757e-74
3.021135128e-73
1.254175428e-72
5.149163165e-72
2.093772847e-71
8.435159289e-71
3.368243104e-70
1.33307543e-69
5.230400416e-69
2.034355134e-68
7.844959356e-68
2.999258505e-67
1.13695897e-66
4.273423056e-66
1.592738472e-65
5.886344722e-65
2.157282119e-64
7.840143732e-64
2.825629877e-63
1.009892758e-62
3.579430498e-62
1.258122744e-61
4.38535231e-61
1.515814228e-60
5.195660323e-60
1.765916915e-59
5.951385325e-59
1.988666752e-58
6.588298418e-58
2.163810904e-57
7.044764923e-57
2.273393165e-56
7.271135508e-56
2.304645858e-55
7.238277579e-55
2.252417909e-54
6.943875089e-54
2.120574124e-53
6.414609507e-53
1.921882804e-52
5.703145371e-52
1.676235467e-51
4.87998554e-51
1.40742407e-50
4.022113987e-50
1.139352294e-49
3.200759739e-49
8.923582755e-49
2.471261552e-48
6.806387333e-48
1.867243466e-47
5.112049426e-47
1.399836967e-46
3.843770871e-46
1.061251049e-45
2.954087846e-45
8.309807453e-45
2.366233603e-44
6.826084892e-44
1.994547951e-43
5.896239574e-43
1.760122777e-42
5.293416932e-42
1.599853347e-41
4.847763212e-41
1.469579254e-40
4.448843897e-40
1.342952931e-39
4.037620846e-39
1.207952433e-38
3.593675748e-38
1.062615161e-37
3.121820038e-37
9.11011314e-37
2.640248324e-36
7.598341434e-36
2.171274793e-35
6.160515195e-35
1.735491218e-34
4.854418672e-34
1.348268606e-33
3.71845113e-33
1.018413089e-32
2.770124612e-32
7.48400336e-32
2.008554724e-31
5.355686313e-31
1.419087229e-30
3.73732039e-30
9.785518861e-30
2.548074072e-29
6.600950419e-29
1.701960968e-28
4.369857744e-28
1.117920657e-27
2.851671324e-27
7.259129757e-27
1.845978395e-26
4.694944122e-26
1.196119643e-25
3.057652913e-25
7.860478475e-25
2.036673213e-24
5.333296157e-24
1.414183595e-23
3.803062704e-23
1.03594528e-22
2.849235154e-22
7.849584104e-22
2.145198433e-21
5.737908969e-21
1.484982412e-20
3.679950303e-20
8.728580181e-20
1.029436499e-77
9.415264687e-77
5.734752962e-76
2.923939162e-75
1.359385818e-74
6.007934369e-74
2.58021319e-73
1.088244558e-72
4.531942265e-72
1.867347277e-71
7.622016697e-71
3.082630612e-70
1.235764165e-69
4.91015422e-69
1.934132731e-68
7.55245268e-68
2.923895411e-67
1.122258439e-66
4.271009883e-66
1.611631521e-65
6.030263586e-65
2.23735985e-64
8.231747102e-64
3.00330354e-63
1.086615097e-62
3.898654431e-62
1.387157659e-61
4.894398742e-61
1.71252407e-60
5.941881021e-60
2.044340958e-59
6.974361031e-59
2.359179706e-58
7.912176035e-58
2.630758678e-57
8.671246957e-57
2.833101079e-56
9.174454994e-56
2.944376097e-55
9.363841901e-55
2.950639637e-54
9.211539536e-54
2.848775745e-53
8.72677414e-53
2.647809825e-52
7.956748651e-52
2.3680526e-51
6.98013737e-51
2.037939001e-50
5.894460036e-50
1.68942041e-49
4.800030654e-49
1.352716838e-48
3.784085244e-48
1.051845763e-47
2.909102949e-47
8.018853177e-47
2.207512133e-46
6.083828784e-46
1.683052401e-45
4.686786846e-45
1.317222046e-44
3.744535066e-44
1.078216689e-43
3.146120008e-43
9.2971337e-43
2.778293542e-42
8.377883115e-42
2.543004983e-41
7.750484533e-41
2.366274146e-40
7.222185207e-40
2.199884188e-39
6.678274634e-39
2.018358222e-38
6.068041569e-38
1.813643395e-37
5.386626678e-37
1.589314552e-36
4.65729993e-36
1.355259338e-35
3.915894938e-35
1.123402538e-34
3.199811532e-34
9.048949027e-34
2.540768139e-33
7.08339392e-33
1.960875291e-32
5.390397557e-32
1.471603572e-31
3.990299717e-31
1.074780215e-30
2.876066286e-30
7.64754824e-30
2.021075151e-29
5.309964444e-29
1.387326094e-28
3.605785204e-28
9.326793965e-28
2.402119294e-27
6.163538858e-27
1.576698547e-26
4.024331433e-26
1.025929595e-25
2.615292271e-25
6.67696929e-25
1.710133794e-24
4.404185372e-24
1.143070541e-23
2.99834006e-23
7.964380242e-23
2.145872022e-22
5.856777e-22
1.613863961e-21
4.451675353e-21
1.21659351e-20
3.246224245e-20
8.353360875e-20
2.048360793e-19
4.780399982e-19
3.849535628e-77
3.447613159e-76
2.064667037e-75
1.04093315e-74
4.811046624e-74
2.122543269e-73
9.12418369e-73
3.857836639e-72
1.611849849e-71
6.665739508e-71
2.731153411e-70
1.108864162e-69
4.462562887e-69
1.78007786e-68
7.039256072e-68
2.759461647e-67
1.072490849e-66
4.132552395e-66
1.578877754e-65
5.980998277e-65
2.246631885e-64
8.367885117e-64
3.090669741e-63
1.131972401e-62
4.111339991e-62
1.480768869e-61
5.288792355e-61
1.873183248e-60
6.578988528e-60
2.291277862e-59
7.91274347e-59
2.709473248e-58
9.198875471e-58
3.096321103e-57
1.033212512e-56
3.417662188e-56
1.120539314e-55
3.641156557e-55
1.172522898e-54
3.741316263e-54
1.182771743e-53
3.704270038e-53
1.149172449e-52
3.531085143e-52
1.074588841e-51
3.2386809e-51
9.666715803e-51
2.857540814e-50
8.36671412e-50
2.426887397e-49
6.976031063e-49
1.988040464e-48
5.620479095e-48
1.577701513e-47
4.402230392e-47
1.222792032e-46
3.387346367e-46
9.378950119e-46
2.602233789e-45
7.255156465e-45
2.038358167e-44
5.785796117e-44
1.662465384e-43
4.840921438e-43
1.428614969e-42
4.268675809e-42
1.289072963e-41
3.925102576e-41
1.201997156e-40
3.692734197e-40
1.135533829e-39
3.488323878e-39
1.068828031e-38
3.2623185e-38
9.90947975e-38
2.993392352e-37
8.987321001e-37
2.680908022e-36
7.943326495e-36
2.337262085e-35
6.82872368e-35
1.980901637e-34
5.705035377e-34
1.631242669e-33
4.630696854e-33
1.305123864e-32
3.652178278e-32
1.014775874e-31
2.799858973e-31
7.671608536e-31
2.087688009e-30
5.643221633e-30
1.515426908e-29
4.043578708e-29
1.072284016e-28
2.826667122e-28
7.409424492e-28
1.931919364e-27
5.012535769e-27
1.294786428e-26
3.331532913e-26
8.544600084e-26
2.186112728e-25
5.585023684e-25
1.42639516e-24
3.647427764e-24
9.354068436e-24
2.411468601e-23
6.26376788e-23
1.6440766e-22
4.369550308e-22
1.177977537e-21
3.216851258e-21
8.867978302e-21
2.445624048e-20
6.673956824e-20
1.77377e-19
4.530548613e-19
1.096971934e-18
2.512423492e-18
1.411178952e-76
1.235717138e-75
7.271917884e-75
3.62580524e-74
1.666757062e-73
7.34420804e-73
3.161184601e-72
1.340208034e-71
5.618450245e-71
2.332032971e-70
9.591347818e-70
3.9091331e-69
1.579291176e-68
6.324051416e-68
2.510511073e-67
9.879578193e-67
3.854653819e-66
1.491030996e-65
5.718626777e-65
2.174651975e-64
8.200084714e-64
3.065979513e-63
1.136762059e-62
4.179378611e-62
1.523747771e-61
5.508897749e-61
1.975035431e-60
7.021529147e-60
2.475339531e-59
8.653014376e-59
2.999294894e-58
1.030780385e-57
3.51230018e-57
1.186481976e-56
3.973244719e-56
1.318880542e-55
4.339127272e-55
1.414783607e-54
4.571114763e-54
1.463351188e-53
4.64109562e-53
1.458105535e-52
4.537423855e-52
1.39843321e-51
4.268358597e-51
1.290165803e-50
3.861860763e-50
1.144822847e-49
3.361447887e-49
9.778166598e-49
2.818911517e-48
8.05780067e-48
2.28542788e-47
6.437939871e-47
1.803424095e-46
5.031709682e-46
1.4010781e-45
3.902719927e-45
1.090438345e-44
3.064873276e-44
8.690122345e-44
2.49174786e-43
7.237649593e-43
2.131250714e-42
6.360215544e-42
1.921020049e-41
5.86018095e-41
1.801034533e-40
5.562014103e-40
1.721743644e-39
5.330690483e-39
1.647714211e-38
5.077181485e-38
1.557775072e-37
4.754951452e-37
1.442984453e-36
4.351540683e-36
1.303592235e-35
3.878437777e-35
1.145815585e-34
3.360988652e-34
9.787786311e-34
2.829779005e-33
8.12207748e-33
2.314372001e-32
6.547295271e-32
1.838955661e-31
5.128427792e-31
1.420137651e-30
3.90521909e-30
1.066528969e-29
2.893103319e-29
7.796169417e-29
2.087364594e-28
5.553944513e-28
1.468904861e-27
3.862715449e-27
1.010275642e-26
2.629025775e-26
6.81009085e-26
1.756846342e-25
4.516652121e-25
1.158022341e-24
2.963834049e-24
7.580595701e-24
1.940521742e-23
4.979985366e-23
1.284187067e-22
3.335315763e-22
8.750525741e-22
2.324081217e-21
6.260188863e-21
1.707896e-20
4.702773806e-20
1.294624767e-19
3.522282417e-19
9.308887787e-19
2.355616996e-18
5.618468443e-18
1.259197165e-17
5.04913876e-76
4.316236728e-75
2.494670881e-74
1.230444795e-73
5.628848827e-73
2.478414391e-72
1.068551623e-71
4.543277944e-71
1.911195113e-70
7.961955756e-70
3.286998032e-69
1.344781744e-68
5.453670573e-68
2.192200665e-67
8.735840838e-67
3.450952097e-66
1.351582076e-65
5.248069286e-65
2.020498699e-64
7.712742339e-64
2.919354871e-63
1.0956816e-62
4.077813845e-62
1.504901017e-61
5.507347581e-61
1.998579284e-60
7.19203742e-60
2.566382146e-59
9.080878749e-59
3.186059667e-58
1.108376715e-57
3.822999841e-57
1.307323311e-56
4.431899074e-56
1.489338517e-55
4.9608144e-55
1.63767397e-54
5.357583096e-54
1.736718832e-53
5.577732122e-53
1.77461211e-52
5.592644618e-52
1.745639019e-51
5.396063424e-51
1.651807081e-50
5.007083973e-50
1.503002304e-49
4.468020258e-49
1.315581276e-48
3.837764895e-48
1.109601008e-47
3.181466194e-47
9.053127273e-47
2.559389766e-46
7.198416629e-46
2.017705631e-45
5.648453948e-45
1.583248259e-44
4.455962487e-44
1.262941437e-43
3.614776889e-43
1.047194582e-42
3.075011645e-42
9.156032089e-42
2.762471397e-41
8.431316958e-41
2.597137075e-40
8.052998762e-40
2.506939307e-39
7.816374139e-39
2.435773322e-38
7.573426608e-38
2.346276822e-37
7.235017422e-37
2.218850714e-36
6.763779973e-36
2.048513526e-35
6.16234076e-35
1.840866415e-34
5.460151333e-34
1.607875486e-33
4.700475968e-33
1.364150876e-32
3.930182762e-32
1.124085627e-31
3.191791666e-31
8.997799725e-31
2.518416886e-30
6.999022447e-30
1.931524156e-29
5.293684246e-29
1.440989576e-28
3.896441532e-28
1.046767531e-27
2.794404847e-27
7.414503744e-27
1.955867058e-26
5.130883731e-26
1.339025548e-25
3.477838084e-25
8.994088576e-25
2.317344103e-24
5.952574283e-24
1.525788094e-23
3.906734576e-23
1.000672661e-22
2.568280715e-22
6.61979835e-22
1.717589018e-21
4.49938175e-21
1.192646567e-20
3.20505522e-20
8.721291671e-20
2.394548005e-19
6.568853074e-19
1.778695142e-18
4.665995144e-18
1.167331146e-17
2.735364225e-17
5.979033398e-17
1.755299942e-75
1.462478702e-74
8.298399724e-74
4.050406204e-73
1.845061758e-72
8.122173354e-72
3.508689285e-71
1.496348797e-70
6.316474681e-70
2.641066079e-69
1.094396094e-68
4.494240704e-68
1.829463656e-67
7.381573921e-67
2.952606577e-66
1.170774033e-65
4.602648679e-65
1.793891648e-64
6.932408728e-64
2.656208349e-63
1.009171335e-62
3.801758432e-62
1.420187287e-61
5.260659443e-61
1.932339524e-60
7.038260146e-60
2.542095639e-59
9.104362927e-59
3.233218101e-58
1.138492236e-57
3.974852371e-57
1.3758872e-56
4.721618686e-56
1.60624133e-55
5.416380748e-55
1.810270619e-54
5.996126141e-54
1.968073404e-53
6.400377563e-53
2.062104767e-52
6.581210758e-52
2.080370459e-51
6.51284874e-51
2.019109757e-50
6.198457603e-50
1.884210706e-49
5.671644402e-49
1.69068175e-48
4.991900155e-48
1.460319444e-47
4.234466097e-47
1.217840813e-46
3.476951857e-46
9.865626149e-46
2.786252964e-45
7.847084887e-45
2.208958855e-44
6.231892263e-44
1.76717086e-43
5.051892698e-43
1.459889808e-42
4.273434249e-42
1.268562546e-41
3.818792731e-41
1.164516624e-40
3.590185502e-40
1.11622366e-39
3.490410151e-39
1.094861509e-38
3.437036453e-38
1.07768553e-37
3.369661876e-37
1.049350968e-36
3.251458658e-36
1.001721756e-35
3.066896075e-35
9.327606869e-35
2.817385168e-34
8.449874885e-34
2.516097437e-33
7.437793248e-33
2.182636606e-32
6.358171571e-32
1.838642685e-31
5.278184411e-31
1.504203893e-30
4.255807833e-30
1.195454193e-29
3.334169625e-29
9.233782194e-29
2.539506484e-28
6.936564485e-28
1.882009686e-27
5.072803126e-27
1.358627409e-26
3.616336367e-26
9.568765795e-26
2.517569064e-25
6.588406395e-25
1.715597199e-24
4.447039229e-24
1.148103899e-23
2.954046847e-23
7.581290016e-23
1.942614734e-22
4.976705244e-22
1.276727235e-21
3.287025834e-21
8.512695254e-21
2.22415803e-20
5.87617294e-20
1.572998374e-19
4.261754931e-19
1.164573015e-18
3.177515402e-18
8.54661533e-18
2.220917788e-17
5.480243417e-17
1.25781518e-16
2.671290767e-16
5.900663984e-75
4.783723343e-74
2.664008659e-73
1.287395378e-72
5.843412908e-72
2.573081023e-71
1.114020308e-70
4.765852409e-70
2.018787028e-69
8.47167081e-69
3.523335433e-68
1.45223768e-67
5.933425597e-67
2.402898237e-66
9.647038946e-66
3.839419655e-65
1.514961858e-64
5.926417071e-64
2.298685366e-63
8.84008075e-63
3.370966017e-62
1.274580333e-61
4.778782509e-61
1.77663028e-60
6.549680011e-60
2.394287374e-59
8.679008435e-59
3.119517544e-58
1.111790835e-57
3.928789236e-57
1.37650737e-56
4.781418758e-56
1.646514294e-55
5.620434714e-55
1.901667389e-54
6.376980377e-54
2.119173727e-53
6.978107519e-53
2.276550307e-52
7.357515031e-52
2.355307233e-51
7.467513473e-51
2.344620119e-50
7.289564427e-50
2.244097279e-49
6.840442928e-49
2.064652303e-48
6.171323215e-48
1.827126038e-47
5.359956801e-47
1.558727664e-46
4.496738382e-46
1.288122948e-45
3.66859103e-45
1.040480387e-44
2.944754766e-44
8.337060146e-44
2.367815072e-43
6.766528889e-43
1.951456903e-42
5.694411199e-42
1.684335025e-41
5.053994908e-41
1.537806197e-40
4.738068224e-40
1.474909627e-39
4.626374255e-39
1.458268422e-38
4.607229106e-38
1.45569856e-37
4.59114641e-37
1.443247586e-36
4.516776264e-36
1.406063467e-35
4.350999226e-35
1.337755663e-34
4.085292819e-34
1.238876557e-33
3.730128687e-33
1.114971791e-32
3.308418549e-32
9.74493328e-32
2.84927732e-31
8.269716099e-31
2.382623055e-30
6.81462777e-30
1.934947238e-29
5.454541732e-29
1.526640983e-28
4.242649606e-28
1.170841132e-27
3.208963034e-27
8.735573988e-27
2.362329486e-26
6.3472276e-26
1.694746464e-25
4.497756912e-25
1.186765796e-24
3.114099693e-24
8.129083906e-24
2.111815667e-23
5.462385711e-23
1.407551765e-22
3.61601273e-22
9.269880464e-22
2.374362473e-21
6.08558134e-21
1.564007352e-20
4.039618575e-20
1.051594987e-19
2.765520797e-19
7.362469054e-19
1.982435975e-18
5.380607485e-18
1.457154221e-17
3.884857215e-17
9.977968193e-17
2.422006074e-16
5.426556036e-16
1.114928719e-15
1.908085645e-74
1.502619701e-73
8.211323926e-73
3.931291865e-72
1.779243994e-71
7.840667808e-71
3.40293843e-70
1.460456325e-69
6.207766666e-69
2.614347755e-68
1.091201463e-67
4.513953813e-67
1.850928218e-66
7.522976226e-66
3.031201453e-65
1.210753899e-64
4.794663316e-64
1.882419344e-63
7.327708166e-63
2.828194869e-62
1.082351254e-61
4.107146115e-61
1.545413787e-60
5.766015663e-60
2.133263494e-59
7.826024485e-59
2.846875081e-58
1.026861038e-57
3.672530917e-57
1.302292976e-56
4.578506079e-56
1.595816357e-55
5.513899809e-55
1.888489378e-54
6.410800037e-54
2.156779972e-53
7.190324915e-53
2.375129704e-52
7.772658349e-52
2.519648378e-51
8.089948503e-51
2.57238761e-50
8.099689846e-50
2.525270712e-49
7.79535581e-49