/*--------------------------------*- C++ -*----------------------------------*\
  =========                 |
  \\      /  F ield         | OpenFOAM: The Open Source CFD Toolbox
   \\    /   O peration     | Website:  https://openfoam.org
    \\  /    A nd           | Version:  7
     \\/     M anipulation  |
\*---------------------------------------------------------------------------*/
FoamFile
{
    version     2.0;
    format      ascii;
    class       volScalarField;
    location    "0.361";
    object      Y_C2H5;
}
// * * * * * * * * * * * * * * * * * * * * * * * * * * * * * * * * * * * * * //

dimensions      [0 0 0 0 0 0 0];

internalField   nonuniform List<scalar> 
35870
(
8.414368651e-144
9.318898617e-143
8.210932449e-142
9.241463366e-141
1.503526194e-139
2.862863794e-138
5.532359471e-137
1.046535548e-135
1.931916424e-134
3.488130726e-133
6.173321164e-132
1.07217109e-130
1.828551998e-129
3.062751511e-128
5.038440376e-127
8.139228788e-126
1.290872974e-124
2.009441905e-123
3.069589149e-122
4.599734128e-121
6.75902177e-120
9.736584453e-119
1.374608735e-117
1.901368411e-116
2.576013773e-115
3.41746793e-114
4.438463635e-113
5.642027585e-112
7.018282574e-111
8.541695258e-110
1.01698364e-108
1.184371191e-107
1.349051473e-106
1.502887517e-105
1.637396536e-104
1.744480831e-103
1.817467478e-102
1.851670188e-101
1.844895712e-100
1.797676365e-99
1.713211806e-98
1.597007463e-97
1.45628303e-96
1.299224866e-95
1.134202725e-94
9.690473696e-94
8.104842126e-93
6.637571249e-92
5.324645988e-91
4.185569704e-90
3.225596186e-89
2.438519451e-88
1.809817833e-87
1.31991518e-86
9.470387817e-86
6.694633893e-85
4.67077327e-84
3.223092496e-83
2.205230758e-82
1.500183534e-81
1.017748377e-80
6.906104038e-80
4.699846007e-79
3.214293644e-78
2.211788456e-77
1.531476002e-76
1.066113098e-75
7.448867757e-75
5.212149762e-74
3.643693911e-73
2.538914691e-72
1.759610375e-71
1.2107758e-70
8.2594577e-70
5.57928667e-69
3.728755116e-68
2.463915366e-67
1.609030377e-66
1.038106806e-65
6.615570599e-65
4.163671612e-64
2.587838932e-63
1.588330475e-62
9.62711566e-62
5.762714069e-61
3.406983448e-60
1.989638108e-59
1.147890625e-58
6.543711157e-58
3.686675005e-57
2.053241722e-56
1.130754434e-55
6.159874307e-55
3.320727904e-54
1.772429698e-53
9.37219125e-53
4.913145905e-52
2.555680844e-51
1.320508604e-50
6.786557896e-50
3.475074135e-49
1.776908457e-48
9.099509462e-48
4.685028568e-47
2.436761066e-46
1.287545858e-45
6.949804406e-45
3.849748541e-44
2.191540644e-43
1.277958146e-42
7.563117805e-42
4.482174217e-41
2.618075223e-40
1.483716093e-39
8.034714911e-39
4.105524537e-38
1.959531814e-37
8.691006722e-37
3.583445108e-36
1.389693061e-35
1.836730566e-143
2.12360623e-142
2.163737272e-141
3.017908412e-140
5.54903861e-139
1.096636688e-137
2.142707672e-136
4.079191624e-135
7.578977989e-134
1.378150681e-132
2.457633312e-131
4.301950551e-130
7.395416495e-129
1.248608596e-127
2.070426039e-126
3.371088397e-125
5.388413803e-124
8.452851784e-123
1.301101505e-121
1.964311403e-120
2.907774975e-119
4.219200261e-118
5.999230915e-117
8.356397902e-116
1.139938486e-114
1.522512637e-113
1.990474502e-112
2.546659315e-111
3.188040949e-110
3.904273427e-109
4.676921905e-108
5.479386184e-107
6.277998221e-106
7.034224922e-105
7.707025969e-104
8.256470411e-103
8.648564167e-102
8.858184299e-101
8.871807214e-100
8.688950171e-99
8.322237094e-98
7.795940856e-97
7.143344634e-96
6.403227351e-95
5.616067361e-94
4.820435086e-93
4.050085876e-92
3.331914837e-91
2.684935177e-90
2.120116658e-89
1.641351515e-88
1.246661116e-87
9.297300791e-87
6.815047017e-86
4.916224489e-85
3.495580582e-84
2.454433878e-83
1.705708841e-82
1.176280914e-81
8.072819324e-81
5.530475461e-80
3.793090926e-79
2.611018478e-78
1.807132488e-77
1.258602345e-76
8.81864555e-76
6.208842814e-75
4.384140294e-74
3.097548198e-73
2.184549997e-72
1.534341023e-71
1.07107476e-70
7.418574976e-70
5.091357531e-69
3.458605171e-68
2.323688757e-67
1.543167328e-66
1.012580867e-65
6.563110802e-65
4.201222692e-64
2.655667095e-63
1.657597582e-62
1.021619975e-61
6.217526764e-61
3.736725163e-60
2.217934393e-59
1.300292581e-58
7.530619446e-58
4.309165461e-57
2.436793972e-56
1.362118899e-55
7.528528839e-55
4.115812948e-54
2.226553203e-53
1.192495483e-52
6.3268389e-52
3.327577921e-51
1.736434639e-50
8.999649824e-50
4.638781123e-49
2.381774876e-48
1.22086941e-47
6.265098275e-47
3.23092124e-46
1.682203754e-45
8.892463723e-45
4.799471288e-44
2.65795979e-43
1.513445035e-42
8.839858407e-42
5.250603016e-41
3.130270164e-40
1.843112912e-39
1.054606674e-38
5.769421364e-38
2.977271509e-37
1.433075457e-36
6.395483811e-36
2.643362434e-35
1.022797447e-34
6.109765421e-143
7.816756172e-142
1.015991733e-140
1.785658499e-139
3.606628213e-138
7.312056632e-137
1.441013378e-135
2.759947639e-134
5.160543693e-133
9.448603079e-132
1.697187542e-130
2.992866298e-129
5.183448586e-128
8.816683675e-127
1.472793767e-125
2.415597096e-124
3.889117691e-123
6.144487726e-122
9.524444418e-121
1.447873028e-119
2.157880503e-118
3.152050786e-117
4.511338661e-116
6.324461837e-115
8.682196745e-114
1.166812129e-112
1.534752169e-111
1.975348843e-110
2.487364887e-109
3.063724947e-108
3.69076161e-107
4.347978664e-106
5.008783207e-105
5.642065498e-104
6.214015743e-103
6.691151253e-102
7.044180546e-101
7.250551532e-100
7.296909719e-99
7.180524117e-98
6.909609422e-97
6.50235172e-96
5.984913347e-95
5.388622484e-94
4.746844722e-93
4.09192336e-92
3.452658198e-91
2.852443628e-90
2.308236258e-89
1.830325852e-88
1.423006871e-87
1.085475086e-86
8.130974603e-86
5.987437289e-85
4.340020323e-84
3.101728644e-83
2.18996057e-82
1.531115342e-81
1.062889604e-80
7.34784889e-80
5.07395286e-79
3.509901286e-78
2.43803938e-77
1.703225932e-76
1.197391727e-75
8.466837473e-75
6.013368432e-74
4.280906142e-73
3.047493185e-72
2.164164969e-71
1.529694155e-70
1.074083886e-69
7.479800859e-69
5.159438348e-68
3.521650098e-67
2.376845004e-66
1.58538384e-65
1.044686251e-64
6.799065481e-64
4.369745724e-63
2.773057591e-62
1.737552633e-61
1.074965175e-60
6.566651378e-60
3.961099108e-59
2.359660845e-58
1.388343935e-57
8.069017439e-57
4.633356918e-56
2.629129799e-55
1.474605298e-54
8.177374531e-54
4.485135927e-53
2.434108478e-52
1.307727436e-51
6.959265466e-51
3.670933027e-50
1.92099474e-49
9.982681776e-49
5.158200552e-48
2.654351318e-47
1.3631651e-46
7.00543251e-46
3.615928119e-45
1.8830371e-44
9.94886487e-44
5.363065058e-43
2.965394099e-42
1.68631476e-41
9.849742197e-41
5.862483336e-40
3.510867357e-39
2.081329395e-38
1.201301797e-37
6.634762497e-37
3.456184671e-36
1.67719264e-35
7.530265712e-35
3.118943815e-34
1.203329915e-33
2.408564466e-142
3.687258181e-141
6.311066607e-140
1.303536019e-138
2.766009595e-137
5.681373219e-136
1.126200189e-134
2.16851406e-133
4.078658798e-132
7.515332538e-131
1.358898151e-129
2.412485324e-128
4.206585172e-127
7.203356927e-126
1.211356799e-124
1.999991093e-123
3.241126529e-122
5.153867564e-121
8.03989938e-120
1.229869893e-118
1.844322584e-117
2.710451487e-116
3.902575258e-115
5.503299265e-114
7.598718507e-113
1.027020776e-111
1.358444489e-110
1.758046193e-109
2.225705178e-108
2.755992874e-107
3.337365031e-106
3.951795528e-105
4.575316593e-104
5.179301241e-103
5.732033429e-102
6.20159739e-101
6.559402786e-100
6.782676509e-99
6.856951067e-98
6.777609713e-97
6.55042564e-96
6.190851634e-95
5.722312704e-94
5.173652005e-93
4.576199573e-92
3.960822914e-91
3.355454256e-90
2.78318725e-89
2.261102643e-88
1.800045947e-87
1.405042178e-86
1.076103772e-85
8.094128456e-85
5.98582197e-84
4.358305567e-83
3.129614796e-82
2.220939245e-81
1.561381277e-80
1.090458476e-79
7.588255108e-79
5.277554552e-78
3.678804313e-77
2.576002764e-76
1.8145206e-75
1.286200504e-74
9.168261517e-74
6.561699912e-73
4.70501885e-72
3.371876943e-71
2.409366169e-70
1.712770951e-69
1.209037923e-68
8.461582206e-68
5.864122011e-67
4.020574484e-66
2.725245137e-65
1.825318822e-64
1.207643161e-63
7.890579493e-63
5.090821918e-62
3.242894102e-61
2.03951966e-60
1.266417909e-59
7.764219225e-59
4.700243484e-58
2.809863349e-57
1.658990511e-56
9.675168249e-56
5.574471373e-55
3.173713519e-54
1.785891991e-53
9.935519154e-53
5.466631523e-52
2.975902755e-51
1.603586768e-50
8.558362957e-50
4.52692397e-49
2.375145039e-48
1.237288919e-47
6.407473636e-47
3.303594148e-46
1.699243915e-45
8.741907647e-45
4.514266284e-44
2.350133645e-43
1.240275479e-42
6.672854684e-42
3.680433477e-41
2.087853503e-40
1.217941711e-39
7.254016158e-39
4.357922574e-38
2.597922804e-37
1.511015831e-36
8.418299812e-36
4.424005145e-35
2.163402679e-34
9.768968905e-34
4.052501829e-33
1.557543551e-32
1.093390328e-141
2.145300416e-140
4.621658155e-139
1.043765696e-137
2.265698103e-136
4.68486219e-135
9.328916968e-134
1.805376889e-132
3.415136986e-131
6.331448483e-130
1.152130994e-128
2.058594682e-127
3.612718634e-126
6.226186113e-125
1.053719244e-123
1.750739463e-122
2.854958412e-121
4.567839901e-120
7.169122798e-119
1.103245039e-117
1.664236651e-116
2.460070594e-115
3.562439841e-114
5.052080459e-113
7.014552931e-112
9.532611059e-111
1.26767869e-109
1.649276354e-108
2.098886586e-107
2.612278854e-106
3.179271183e-105
3.783239365e-104
4.401511198e-103
5.006435012e-102
5.56678514e-101
6.050670078e-100
6.428885249e-99
6.67746204e-98
6.780290431e-97
6.730838232e-96
6.532911069e-95
6.200153368e-94
5.754532241e-93
5.223910222e-92
4.639167085e-91
4.031216545e-90
3.428472744e-89
2.854810977e-88
2.328257504e-87
1.860680273e-86
1.4580316e-85
1.121103758e-84
8.466750232e-84
6.287627478e-83
4.598152737e-82
3.317226415e-81
2.365854467e-80
1.672282125e-79
1.174817888e-78
8.228002381e-78
5.762439565e-77
4.046746814e-76
2.855763607e-75
2.027629199e-74
1.448683796e-73
1.040630697e-72
7.502633282e-72
5.416904384e-71
3.907017206e-70
2.80839281e-69
2.007484603e-68
1.424400134e-67
1.0017285e-66
6.974277077e-66
4.802798245e-65
3.269273943e-64
2.198705804e-63
1.460506458e-62
9.580155061e-62
6.204661291e-61
3.967361754e-60
2.504444789e-59
1.560821059e-58
9.603858374e-58
5.834725074e-57
3.500400144e-56
2.073905558e-55
1.213655675e-54
7.016340538e-54
4.007938014e-53
2.262709427e-52
1.262860711e-51
6.970166231e-51
3.805949381e-50
2.056904262e-49
1.100877088e-48
5.838716522e-48
3.071132062e-47
1.603560787e-46
8.321444524e-46
4.297904966e-45
2.213635504e-44
1.139732367e-43
5.886248764e-43
3.062263681e-42
1.613531256e-41
8.659179461e-41
4.7605405e-40
2.691380572e-39
1.566136483e-38
9.322194306e-38
5.610556032e-37
3.359110144e-36
1.966695159e-35
1.104359239e-34
5.851204532e-34
2.8819141e-33
1.308262189e-32
5.432390675e-32
2.077694719e-31
5.816394342e-141
1.477828055e-139
3.691136702e-138
8.694233058e-137
1.905443269e-135
3.955142372e-134
7.907858446e-133
1.538009042e-131
2.925929643e-130
5.457369052e-129
9.99276903e-128
1.79672215e-126
3.173022589e-125
5.502681596e-124
9.370753941e-123
1.566548215e-121
2.570199239e-120
4.136996737e-119
6.531476193e-118
1.011006578e-116
1.533927205e-115
2.280392173e-114
3.320830167e-113
4.735540565e-112
6.610943465e-111
9.032381461e-110
1.207508667e-108
1.579168044e-107
2.01995596e-106
2.526703364e-105
3.090352375e-104
3.695343491e-103
4.319874991e-102
4.936773078e-101
5.514759502e-100
6.021444575e-99
6.426532429e-98
6.704477224e-97
6.83727894e-96
6.816400937e-95
6.643760492e-94
6.331433071e-93
5.900304819e-92
5.377737221e-91
4.794696498e-90
4.182680011e-89
3.571087944e-88
2.985008711e-87
2.443766319e-86
1.960488036e-85
1.54218624e-84
1.190473644e-83
9.026890557e-83
6.731626932e-82
4.944454866e-81
3.583702256e-80
2.568737654e-79
1.825587574e-78
1.290149444e-77
9.094349441e-77
6.413858481e-76
4.537883102e-75
3.227341873e-74
2.309664651e-73
1.663213656e-72
1.203879515e-71
8.742805577e-71
6.355415696e-70
4.613059791e-69
3.335465701e-68
2.397339148e-67
1.709765285e-66
1.208247041e-65
8.45090826e-65
5.845399795e-64
3.99595277e-63
2.698557278e-62
1.799781388e-61
1.185235709e-60
7.706106459e-60
4.946258026e-59
3.134157601e-58
1.960538087e-57
1.210766133e-56
7.382566893e-56
4.444851055e-55
2.642777291e-54
1.551949494e-53
9.002852951e-53
5.160034218e-52
2.922768504e-51
1.636528074e-50
9.061026174e-50
4.962743376e-49
2.689979085e-48
1.443752003e-47
7.677544027e-47
4.04830891e-46
2.118519171e-45
1.101531313e-44
5.698405518e-44
2.938372808e-43
1.513757135e-42
7.816830674e-42
4.06249668e-41
2.136320371e-40
1.143038712e-39
6.259652707e-39
3.523705678e-38
2.043150796e-37
1.213910982e-36
7.309226492e-36
4.389124969e-35
2.583798938e-34
1.461041848e-33
7.799178446e-33
3.866625557e-32
1.763504539e-31
7.325350189e-31
2.784748697e-30
3.635337245e-140
1.133039358e-138
3.0589901e-137
7.329635347e-136
1.612254397e-134
3.355719431e-133
6.735959099e-132
1.316680206e-130
2.519146804e-129
4.726955996e-128
8.70878942e-127
1.575586231e-125
2.799776167e-124
4.885375365e-123
8.370643684e-122
1.407866283e-120
2.323795337e-119
3.762568926e-118
5.974951392e-117
9.302089371e-116
1.419407395e-114
2.122039718e-113
3.10740969e-112
4.455474287e-111
6.253537996e-110
8.58947983e-109
1.154308836e-107
1.517370288e-106
1.950750875e-105
2.452312729e-104
3.014089806e-103
3.62156027e-102
4.253769479e-101
4.883991962e-100
5.48087156e-99
6.011516067e-98
6.44450948e-97
6.75269617e-96
6.916148631e-95
6.924284399e-94
6.777090818e-93
6.485038722e-92
6.067910868e-91
5.552567293e-90
4.970084828e-89
4.352580405e-88
3.730501219e-87
3.130209702e-86
2.572425534e-85
2.07161212e-84
1.635906005e-83
1.267793098e-82
9.652088534e-82
7.228151675e-81
5.332688617e-80
3.88336445e-79
2.797734503e-78
1.999382533e-77
1.421554768e-76
1.008704183e-75
7.164918305e-75
5.107888403e-74
3.661532938e-73
2.641485958e-72
1.917312588e-71
1.398491392e-70
1.023033693e-69
7.487655564e-69
5.469503524e-68
3.978116565e-67
2.875009776e-66
2.061044009e-65
1.463608628e-64
1.028469886e-63
7.145644831e-63
4.905941512e-62
3.327029906e-61
2.228053314e-60
1.473182329e-59
9.616168527e-59
6.196306925e-58
3.941329571e-57
2.474807803e-56
1.534087785e-55
9.388602624e-55
5.673277081e-54
3.38531773e-53
1.995060414e-52
1.161378884e-51
6.679359137e-51
3.796077892e-50
2.132497476e-49
1.184479882e-48
6.507466156e-48
3.537738905e-47
1.904116491e-46
1.015249657e-45
5.366419319e-45
2.814466117e-44
1.466158949e-43
7.596140117e-43
3.920960393e-42
2.020781148e-41
1.043124559e-40
5.414238862e-40
2.840547572e-39
1.514655058e-38
8.25787125e-38
4.624759097e-37
2.669174057e-36
1.58103388e-35
9.510931809e-35
5.71994554e-34
3.381348973e-33
1.923621375e-32
1.033829366e-31
5.155073215e-31
2.359705357e-30
9.799999058e-30
3.697638955e-29
2.577499857e-139
9.141002883e-138
2.555371496e-136
6.154788445e-135
1.355328845e-133
2.827675736e-132
5.698856262e-131
1.119658929e-129
2.154470559e-128
4.066981732e-127
7.538841811e-126
1.37232029e-124
2.453577904e-123
4.307474663e-122
7.42560104e-121
1.256435583e-119
2.086117827e-118
3.397567473e-117
5.42666956e-116
8.497022954e-115
1.303917466e-113
1.960287706e-112
2.886391543e-111
4.161088204e-110
5.871667622e-109
8.107566203e-108
1.095214679e-106
1.447062593e-105
1.869742946e-104
2.362143689e-103
2.917445182e-102
3.5222928e-101
4.15678014e-100
4.794879859e-99
5.405478779e-98
5.955534327e-97
6.412817323e-96
6.748823898e-95
6.941878e-94
6.979425222e-93
6.859481828e-92
6.590764707e-91
6.191715512e-90
5.6884e-89
5.111691086e-88
4.494008939e-87
3.866585023e-86
3.25679838e-85
2.68668031e-84
2.171929683e-83
1.721785246e-82
1.339633987e-81
1.024068385e-80
7.701604607e-80
5.70757403e-79
4.176409258e-78
3.024579406e-77
2.173835602e-76
1.555259481e-75
1.11111673e-74
7.950606093e-74
5.712409601e-73
4.12816077e-72
3.002597996e-71
2.197086206e-70
1.615073571e-69
1.190201567e-68
8.771378944e-68
6.448399174e-67
4.718107974e-66
3.428810804e-65
2.470922701e-64
1.763373081e-63
1.244975551e-62
8.689257006e-62
5.992016219e-61
4.080997529e-60
2.744435056e-59
1.822080389e-58
1.194170807e-57
7.725468363e-57
4.933317194e-56
3.109715839e-55
1.935048099e-54
1.188733331e-53
7.210055123e-53
4.318206459e-52
2.554089432e-51
1.492123311e-50
8.611685211e-50
4.911107093e-49
2.768136272e-48
1.542551533e-47
8.501358056e-47
4.635639145e-46
2.502171873e-45
1.337691591e-44
7.088114197e-44
3.725537204e-43
1.944366742e-42
1.008829266e-41
5.212197851e-41
2.686996405e-40
1.386268471e-39
7.184322262e-39
3.759361141e-38
1.997051999e-37
1.083421678e-36
6.031962684e-36
3.461683414e-35
2.041881069e-34
1.225491407e-33
7.370128293e-33
4.369146706e-32
2.498291432e-31
1.350787022e-30
6.767326779e-30
3.10337349e-29
1.288618382e-28
4.81583801e-28
1.964979263e-138
7.474288352e-137
2.115230528e-135
5.093119165e-134
1.121639946e-132
2.345661775e-131
4.747073962e-130
9.375281171e-129
1.814418169e-127
3.445655912e-126
6.426117705e-125
1.176928228e-123
2.117088492e-122
3.739304366e-121
6.485066312e-120
1.103843612e-118
1.843580319e-117
3.020110648e-116
4.851685368e-115
7.640121663e-114
1.179036222e-112
1.782410488e-111
2.638893477e-110
3.824890578e-109
5.426079866e-108
7.531714415e-107
1.022697528e-105
1.358141659e-104
1.763663509e-103
2.2391504e-102
2.779004409e-101
3.37123985e-100
3.997339294e-99
4.632369702e-98
5.246079367e-97
5.805886178e-96
6.279341114e-95
6.637131931e-94
6.856247727e-93
6.922402773e-92
6.831680631e-91
6.59087923e-90
6.216751714e-89
5.734085527e-88
5.172984493e-87
4.565578031e-86
3.943289147e-85
3.334111e-84
2.760989657e-83
2.240601588e-82
1.783160992e-81
1.392929117e-80
1.069207937e-79
8.075870632e-79
6.012428036e-78
4.421219983e-77
3.219088658e-76
2.327272523e-75
1.675816486e-74
1.205718437e-73
8.693441374e-73
6.296668459e-72
4.588457015e-71
3.365518295e-70
2.483023802e-69
1.839767962e-68
1.365953074e-67
1.013707674e-66
7.500881475e-66
5.521364074e-65
4.035224641e-64
2.923371957e-63
2.096771648e-62
1.487490303e-61
1.043003949e-60
7.224788603e-60
4.942175657e-59
3.337829764e-58
2.225382315e-57
1.464534251e-56
9.513239351e-56
6.099444558e-55
3.860097258e-54
2.411431684e-53
1.487143045e-52
9.054633679e-52
5.443491167e-51
3.231678406e-50
1.894909718e-49
1.097575782e-48
6.281384478e-48
3.552670584e-47
1.986347323e-46
1.098248683e-45
6.007013432e-45
3.251853072e-44
1.743208567e-43
9.259780684e-43
4.877664678e-42
2.550365015e-41
1.325121606e-40
6.852286189e-40
3.533120393e-39
1.821539675e-38
9.423830872e-38
4.917070821e-37
2.60144823e-36
1.403780751e-35
7.763940504e-35
4.425910853e-34
2.596849605e-33
1.552904722e-32
9.32408135e-32
5.535188416e-31
3.178154229e-30
1.727070826e-29
8.68259187e-29
3.97702702e-28
1.655067058e-27
6.105073781e-27
1.538915026e-137
6.056229028e-136
1.715649493e-134
4.119288862e-133
9.069554536e-132
1.901451694e-130
3.864725487e-129
7.673275248e-128
1.49364658e-126
2.853546877e-125
5.354217227e-124
9.865847279e-123
1.785469681e-121
3.172614064e-120
5.535239652e-119
9.477630346e-118
1.592208641e-116
2.623496895e-115
4.23880169e-114
6.712955413e-113
1.041773465e-111
1.583633258e-110
2.357424753e-109
3.435355314e-108
4.89940296e-107
6.836309e-106
9.330652424e-105
1.245409342e-103
1.625367886e-102
2.073749793e-101
2.586227467e-100
3.152394539e-99
3.755556978e-98
4.372235596e-97
4.973991868e-96
5.529444279e-95
6.006756357e-94
6.376598757e-93
6.615275298e-92
6.707206975e-91
6.646719664e-90
6.438588542e-89
6.097508878e-88
5.646402254e-87
5.113868923e-86
4.530956052e-85
3.928414083e-84
3.334250678e-83
2.771701947e-82
2.257996786e-81
1.804067635e-80
1.414942942e-79
1.090651545e-78
8.274103948e-78
6.188938209e-77
4.574118734e-76
3.348892323e-75
2.435895491e-74
1.765821803e-73
1.279813377e-72
9.300815584e-72
6.792987458e-71
4.992817144e-70
3.693777381e-69
2.748249832e-68
2.052752324e-67
1.535685088e-66
1.14775314e-65
8.54867185e-65
6.331172473e-64
4.653552466e-63
3.389505738e-62
2.443553267e-61
1.742004828e-60
1.227243773e-59
8.540047346e-59
5.868074216e-58
3.980564575e-57
2.665356188e-56
1.761533772e-55
1.149041494e-54
7.397600966e-54
4.700792299e-53
2.948488688e-52
1.82561159e-51
1.115928701e-50
6.73489137e-50
4.013695804e-49
2.362334695e-48
1.373390686e-47
7.888378026e-47
4.477349338e-46
2.511943085e-45
1.393447446e-44
7.645769576e-44
4.151367394e-43
2.231608592e-42
1.188418883e-41
6.274093433e-41
3.28663432e-40
1.710085986e-39
8.850356478e-39
4.563853756e-38
2.351049228e-37
1.214018768e-36
6.314674298e-36
3.326441945e-35
1.784818972e-34
9.79895631e-34
5.542557937e-33
3.231416567e-32
1.922987477e-31
1.150801313e-30
6.831539682e-30
3.934056276e-29
2.144319162e-28
1.081124293e-27
4.923741975e-27
2.064139655e-26
7.738308423e-26
1.201381726e-136
4.795289931e-135
1.352013309e-133
3.23318218e-132
7.116774038e-131
1.496102111e-129
3.054501395e-128
6.097424912e-127
1.19382181e-125
2.294441031e-124
4.331225432e-123
8.029208454e-122
1.461855445e-120
2.613167508e-119
4.586344599e-118
7.899255495e-117
1.334807764e-115
2.21210947e-114
3.594592574e-113
5.724952557e-112
8.934143003e-111
1.365603224e-109
2.043933807e-108
2.994525479e-107
4.293336427e-106
6.021931316e-105
8.261416867e-104
1.108277154e-102
1.453613253e-101
1.863734397e-100
2.335569478e-99
2.860449894e-98
3.42377802e-97
4.004323766e-96
4.576120242e-95
5.109886997e-94
5.575413543e-93
5.944332787e-92
6.193113375e-91
6.305516443e-90
6.27445336e-89
6.102695166e-88
5.802571427e-87
5.394544076e-86
4.904905479e-85
4.362641006e-84
3.796998134e-83
3.235062558e-82
2.699590797e-81
2.207792458e-80
1.770934216e-79
1.394611993e-78
1.079542197e-77
8.226550906e-77
6.182950058e-76
4.59355916e-75
3.382409032e-74
2.475849315e-73
1.807317649e-72
1.319893014e-71
9.670961025e-71
7.124483006e-70
5.282960174e-69
3.943075216e-68
2.959039392e-67
2.228362472e-66
1.679917901e-65
1.264559622e-64
9.48137951e-64
7.065433297e-63
5.223354495e-62
3.825334889e-61
2.772095343e-60
1.98608223e-59
1.405942089e-58
9.829416147e-58
6.784961698e-57
4.623200418e-56
3.109334452e-55
2.063900669e-54
1.35205652e-53
8.741568054e-53
5.578122882e-52
3.51329674e-51
2.184246959e-50
1.340561311e-49
8.122978317e-49
4.860033536e-48
2.871570567e-47
1.675811477e-46
9.661337433e-46
5.503632504e-45
3.098640345e-44
1.724766375e-43
9.494561576e-43
5.171083223e-42
2.787743103e-41
1.488456656e-40
7.876155701e-40
4.133748516e-39
2.153944145e-38
1.115678081e-37
5.753616995e-37
2.961289295e-36
1.525986169e-35
7.910835889e-35
4.14824565e-34
2.212570336e-33
1.204891039e-32
6.753519351e-32
3.908409355e-31
2.312146121e-30
1.376542967e-29
8.161212311e-29
4.705512703e-28
2.562008452e-27
1.295642438e-26
6.092278809e-26
2.547127001e-25
9.415150604e-25
9.175700829e-136
3.673598512e-134
1.027563033e-132
2.446128244e-131
5.383785788e-130
1.135142716e-128
2.328335889e-127
4.673365104e-126
9.203537048e-125
1.779449559e-123
3.379308765e-122
6.302274867e-121
1.154316489e-119
2.075720822e-118
3.664642395e-117
6.348791305e-116
1.079046347e-114
1.798541933e-113
2.939202997e-112
4.707492617e-111
7.387179468e-110
1.135345042e-108
1.70850726e-107
2.516481064e-106
3.626975042e-105
5.113717386e-104
7.051357051e-103
9.507128736e-102
1.253143533e-100
1.614572266e-99
2.033087369e-98
2.501834615e-97
3.008523967e-96
3.534784912e-95
4.057794122e-94
4.551275336e-93
4.98767127e-92
5.340630218e-91
5.587754041e-90
5.712927102e-89
5.708153491e-88
5.574378348e-87
5.321394258e-86
4.966715772e-85
4.533565529e-84
4.047872407e-83
3.536535772e-82
3.024689366e-81
2.533755076e-80
2.080241216e-79
1.675262211e-78
1.324693723e-77
1.02983197e-76
7.883595108e-76
5.9543612e-75
4.447512088e-74
3.294281065e-73
2.427171619e-72
1.784633099e-71
1.313660892e-70
9.707277941e-70
7.215124608e-69
5.398969758e-68
4.06616414e-67
3.078180279e-66
2.337383571e-65
1.7758355e-64
1.346436097e-63
1.01630473e-62
7.620735359e-62
5.666871576e-61
4.173107357e-60
3.040060526e-59
2.189102455e-58
1.557258102e-57
1.093929422e-56
7.586345037e-56
5.192957908e-55
3.508287601e-54
2.339078376e-53
1.5390601e-52
9.993865484e-52
6.40465124e-51
4.051032674e-50
2.529159262e-49
1.558704735e-48
9.483595702e-48
5.697094339e-47
3.379584397e-46
1.98001458e-45
1.145896814e-44
6.552135368e-44
3.702400268e-43
2.068074491e-42
1.142271534e-41
6.241022308e-41
3.374523046e-40
1.806615729e-39
9.582402244e-39
5.039198364e-38
2.629637129e-37
1.363234599e-36
7.030660355e-36
3.61505185e-35
1.858763376e-34
9.601250911e-34
5.010390215e-33
2.656160957e-32
1.433508253e-31
7.949646642e-31
4.562520105e-30
2.680944857e-29
1.583816418e-28
9.368563588e-28
5.403498185e-27
2.970750059e-26
1.52851296e-25
7.233591173e-25
3.010021107e-24
1.092771727e-23
6.771230458e-135
2.700452825e-133
7.478810626e-132
1.771890416e-130
3.900395747e-129
8.250263901e-128
1.700367501e-126
3.431864077e-125
6.798064859e-124
1.322199444e-122
2.525967178e-121
4.738973504e-120
8.731435464e-119
1.579392431e-117
2.804755399e-116
4.887359041e-115
8.354487424e-114
1.400470985e-112
2.301603215e-111
3.706898134e-110
5.849114517e-109
9.038580059e-108
1.367475013e-106
2.024865333e-105
2.933698834e-104
4.157610424e-103
5.762113972e-102
7.807768362e-101
1.034228131e-99
1.339004094e-98
1.694172117e-97
2.094685633e-96
2.530527653e-95
2.986712345e-94
3.444033003e-93
3.879963344e-92
4.270504771e-91
4.592303824e-90
4.825056725e-89
4.953611878e-88
4.969690181e-87
4.872751008e-86
4.670068414e-85
4.37593903e-84
4.009761749e-83
3.593906651e-82
3.15191039e-81
2.706034908e-80
2.275542018e-79
1.875536987e-78
1.516449454e-77
1.204086629e-76
9.401515817e-76
7.230558131e-75
5.48865599e-74
4.12233423e-73
3.072118268e-72
2.278877668e-71
1.688195375e-70
1.252879438e-69
9.339571288e-69
7.005591411e-68
5.291091125e-67
4.021646183e-66
3.071523785e-65
2.351914474e-64
1.800880087e-63
1.375352747e-62
1.045132836e-61
7.886143527e-61
5.898809393e-60
4.368150122e-59
3.199103998e-58
2.315443962e-57
1.655324197e-56
1.168456254e-55
8.1416715e-55
5.599103991e-54
3.800068609e-53
2.545115226e-52
1.682140272e-51
1.097143932e-50
7.062031075e-50
4.486263933e-49
2.812942016e-48
1.740979778e-47
1.06371794e-46
6.416626443e-46
3.821995811e-45
2.248220813e-44
1.306248741e-43
7.497795493e-43
4.252636378e-42
2.384022332e-41
1.321348879e-40
7.243170012e-40
3.928391697e-39
2.10901782e-38
1.121394672e-37
5.909317659e-37
3.088469972e-36
1.60252633e-35
8.265202369e-35
4.245428331e-34
2.177705854e-33
1.120461687e-32
5.816964111e-32
3.06499496e-31
1.637840769e-30
8.968103533e-30
5.101783337e-29
2.975301682e-28
1.736706904e-27
1.021192421e-26
5.989485222e-26
3.345052679e-25
1.729791278e-24
8.162545923e-24
3.359990011e-23
1.196842515e-22
4.781355105e-134
1.889926587e-132
5.174974665e-131
1.22025251e-129
2.687323646e-128
5.704102507e-127
1.181396512e-125
2.397731336e-124
4.77721189e-123
9.346444962e-122
1.796135601e-120
3.389660806e-119
6.282076246e-118
1.142986875e-116
2.041558933e-115
3.577956746e-114
6.151080675e-113
1.036943618e-111
1.713698631e-110
2.775309559e-109
4.40309667e-108
6.840800309e-107
1.040481406e-105
1.548779819e-104
2.255570906e-103
3.212922081e-102
4.475276394e-101
6.094166833e-100
8.111942721e-99
1.055313359e-97
1.341572984e-96
1.666494138e-95
2.022463395e-94
2.397850371e-93
2.777322897e-92
3.142585164e-91
3.473831193e-90
3.75145903e-89
3.958062382e-88
4.08022577e-87
4.110040426e-86
4.045942867e-85
3.892905778e-84
3.66190651e-83
3.368364181e-82
3.030534557e-81
2.667919416e-80
2.299224912e-79
1.940867889e-78
1.605935554e-77
1.303673759e-76
1.039461833e-75
8.151926323e-75
6.299186839e-74
4.806298877e-73
3.630349453e-72
2.7225562e-71
2.033768002e-70
1.518329088e-69
1.136366023e-68
8.547657625e-68
6.471859072e-67
4.934396082e-66
3.785515541e-65
2.917044002e-64
2.252444583e-63
1.738244066e-62
1.33716742e-61
1.022968801e-60
7.767456081e-60
5.844384104e-59
4.352114867e-58
3.204459518e-57
2.331320142e-56
1.675047968e-55
1.18817991e-54
8.318944043e-54
5.748107325e-53
3.919406338e-52
2.637147106e-51
1.750918218e-50
1.147161396e-49
7.417016451e-49
4.732655039e-48
2.980454953e-47
1.852668559e-46
1.136820064e-45
6.886685958e-45
4.119138597e-44
2.432981809e-43
1.419306868e-42
8.178918935e-42
4.656795906e-41
2.62030532e-40
1.457495319e-39
8.016554472e-39
4.361620898e-38
2.348385637e-37
1.251870627e-36
6.611027871e-36
3.460827025e-35
1.797426949e-34
9.270969078e-34
4.756776896e-33
2.433743711e-32
1.246738197e-31
6.435620266e-31
3.371269983e-30
1.782054773e-29
9.606751732e-29
5.403352141e-28
3.128329897e-27
1.823433477e-26
1.088148349e-25
6.386602218e-25
3.586332525e-24
1.84453099e-23
8.618768171e-23
3.509274129e-22
1.233608779e-21
3.202307729e-133
1.249170578e-131
3.378282397e-130
7.929539936e-129
1.74771631e-127
3.723510898e-126
7.750586842e-125
1.581824475e-123
3.16977502e-122
6.237792527e-121
1.205731041e-119
2.288725044e-118
4.266286096e-117
7.807055701e-116
1.402458533e-114
2.471859673e-113
4.273441191e-112
7.244344668e-111
1.203842469e-109
1.960256287e-108
3.126774865e-107
4.88376283e-106
7.467256508e-105
1.117291937e-103
1.635508585e-102
2.341447687e-101
3.277620957e-100
4.485157446e-99
5.999146502e-98
7.841733929e-97
1.001554725e-95
1.249857038e-94
1.523697879e-93
1.814582616e-92
2.111001126e-91
2.398980135e-90
2.663150535e-89
2.888051674e-88
3.059679603e-87
3.166925473e-86
3.202823724e-85
3.165298454e-84
3.057409341e-83
2.887033437e-82
2.665696026e-81
2.407389641e-80
2.127313293e-79
1.840250814e-78
1.559356692e-77
1.29528174e-76
1.055710043e-75
8.452843237e-75
6.65862444e-74
5.169989023e-73
3.965453987e-72
3.012672796e-71
2.274003721e-70
1.710992435e-69
1.287581264e-68
9.720576726e-68
7.379406913e-67
5.640763863e-66
4.342042604e-65
3.362329192e-64
2.614141039e-63
2.035510318e-62
1.583093245e-61
1.226618274e-60
9.446916647e-60
7.218038934e-59
5.463038623e-58
4.090952284e-57
3.028359514e-56
2.214648768e-55
1.599260864e-54
1.140027363e-53
8.020546503e-53
5.56842257e-52
3.814796147e-51
2.578733158e-50
1.720041336e-49
1.132087927e-48
7.352752279e-48
4.712737603e-47
2.981130133e-46
1.861261709e-45
1.147077378e-44
6.978796487e-44
4.192000216e-43
2.486398072e-42
1.456441615e-41
8.426754859e-41
4.816765929e-40
2.720643736e-39
1.518851721e-38
8.383149123e-38
4.575982486e-37
2.471185911e-36
1.320840204e-35
6.990878283e-35
3.665930758e-34
1.905861672e-33
9.830888314e-33
5.038026737e-32
2.570397796e-31
1.310136115e-30
6.71688385e-30
3.500850518e-29
1.828594886e-28
9.680901565e-28
5.415062208e-27
3.120419557e-26
1.827893827e-25
1.089188707e-24
6.374591634e-24
3.552394953e-23
1.827710037e-22
8.528431874e-22
3.425472094e-21
1.172403668e-20
2.016140192e-132
7.730446576e-131
2.063258437e-129
4.822258052e-128
1.064123983e-126
2.276057999e-125
4.761704013e-124
9.772173932e-123
1.96934647e-121
3.89775445e-120
7.577318965e-119