/*--------------------------------*- C++ -*----------------------------------*\
  =========                 |
  \\      /  F ield         | OpenFOAM: The Open Source CFD Toolbox
   \\    /   O peration     | Website:  https://openfoam.org
    \\  /    A nd           | Version:  7
     \\/     M anipulation  |
\*---------------------------------------------------------------------------*/
FoamFile
{
    version     2.0;
    format      ascii;
    class       volScalarField;
    location    "0.361";
    object      Y_CH2;
}
// * * * * * * * * * * * * * * * * * * * * * * * * * * * * * * * * * * * * * //

dimensions      [0 0 0 0 0 0 0];

internalField   nonuniform List<scalar> 
35870
(
-3.295316039e-91
-2.618491486e-90
-1.397720498e-89
-6.104935366e-89
-2.411005499e-88
-9.657755865e-88
-4.628025513e-87
-2.962949231e-86
-2.35527569e-85
-2.036487212e-84
-1.780443994e-83
-1.532760794e-82
-1.288829785e-81
-1.055986384e-80
-8.42556912e-80
-6.545603486e-79
-4.951347123e-78
-3.647012835e-77
-2.615848448e-76
-1.827209614e-75
-1.243097513e-74
-8.237434619e-74
-5.317290682e-73
-3.343780639e-72
-2.048705276e-71
-1.223089367e-70
-7.11578831e-70
-4.034797303e-69
-2.230013675e-68
-1.201526322e-67
-6.311843378e-67
-3.233211949e-66
-1.615213805e-65
-7.870482918e-65
-3.741259326e-64
-1.735216678e-63
-7.853825424e-63
-3.469587942e-62
-1.496334653e-61
-6.30126487e-61
-2.591685185e-60
-1.041401845e-59
-4.089687679e-59
-1.570336366e-58
-5.899049225e-58
-2.169717608e-57
-7.822229193e-57
-2.768347331e-56
-9.637739567e-56
-3.30998146e-55
-1.125630394e-54
-3.808242296e-54
-1.288831496e-53
-4.388464705e-53
-1.511102531e-52
-5.279443632e-52
-1.87276005e-51
-6.729916715e-51
-2.438987585e-50
-8.863302717e-50
-3.21089106e-49
-1.153522142e-48
-4.092057982e-48
-1.428727579e-47
-4.897941265e-47
-1.64594874e-46
-5.415875892e-46
-1.743637004e-45
-5.490212882e-45
-1.690315916e-44
-5.088092432e-44
-1.497468981e-43
-4.309384218e-43
-1.21279758e-42
-3.338523277e-42
-8.990886419e-42
-2.369353471e-41
-6.111371919e-41
-1.543261784e-40
-3.816322713e-40
-9.244188394e-40
-2.193944552e-39
-5.103073888e-39
-1.163602609e-38
-2.601733746e-38
-5.705943421e-38
-1.227791085e-37
-2.59292335e-37
-5.376238015e-37
-1.094924368e-36
-2.191642326e-36
-4.315413849e-36
-8.370293261e-36
-1.602750981e-35
-3.039898709e-35
-5.739633074e-35
-1.086298028e-34
-2.078751927e-34
-4.058853581e-34
-8.145686446e-34
-1.685417818e-33
-3.587978112e-33
-7.816196089e-33
-1.733747075e-32
-3.915022197e-32
-9.072129363e-32
-2.193446407e-31
-5.643540296e-31
-1.561893245e-30
-4.612649622e-30
-1.419283665e-29
-4.424981763e-29
-1.366229117e-28
-4.113013532e-28
-1.195854805e-27
-3.340381263e-27
-8.943186526e-27
-2.295556324e-26
-5.668817212e-26
-1.359079223e-25
-5.485817876e-91
-4.320151559e-90
-2.283444452e-89
-9.891722363e-89
-3.898262175e-88
-1.581754009e-87
-7.839734012e-87
-5.210892324e-86
-4.236012396e-85
-3.699825286e-84
-3.250591099e-83
-2.807257537e-82
-2.366657995e-81
-1.94376733e-80
-1.554517724e-79
-1.210408824e-78
-9.176415217e-78
-6.773811067e-77
-4.868939302e-76
-3.408118763e-75
-2.323349649e-74
-1.542627427e-73
-9.976911863e-73
-6.285727797e-72
-3.858199746e-71
-2.307410318e-70
-1.344698192e-69
-7.637147718e-69
-4.227628134e-68
-2.281252457e-67
-1.200100483e-66
-6.155827559e-66
-3.079231197e-65
-1.502249964e-64
-7.1491638e-64
-3.319364712e-63
-1.503880106e-62
-6.649780039e-62
-2.870268822e-61
-1.209633742e-60
-4.978636166e-60
-2.001802696e-59
-7.865856334e-59
-3.021956859e-58
-1.13584155e-57
-4.180235347e-57
-1.50814624e-56
-5.342553217e-56
-1.862442042e-55
-6.408624009e-55
-2.18536311e-54
-7.421811417e-54
-2.524636092e-53
-8.652060277e-53
-3.002024688e-52
-1.057634021e-51
-3.783507712e-51
-1.370402914e-50
-5.000684488e-50
-1.827473104e-49
-6.649105609e-49
-2.396317442e-48
-8.519545252e-48
-2.978753043e-47
-1.021959043e-46
-3.435194399e-46
-1.130165255e-45
-3.636826603e-45
-1.14426653e-44
-3.519429037e-44
-1.058113482e-43
-3.109731492e-43
-8.934879945e-43
-2.510122421e-42
-6.896383545e-42
-1.853356902e-41
-4.873111245e-41
-1.253909972e-40
-3.158276093e-40
-7.788799753e-40
-1.881226468e-39
-4.45119294e-39
-1.032030446e-38
-2.345343487e-38
-5.225611098e-38
-1.141842578e-37
-2.447608708e-37
-5.148552726e-37
-1.063168194e-36
-2.156291196e-36
-4.298394397e-36
-8.430671756e-36
-1.629696069e-35
-3.113166385e-35
-5.901235632e-35
-1.116734088e-34
-2.126892088e-34
-4.115921024e-34
-8.166512588e-34
-1.67085111e-33
-3.525731219e-33
-7.633837617e-33
-1.683266739e-32
-3.75880824e-32
-8.504000568e-32
-1.968022506e-31
-4.747774653e-31
-1.220889152e-30
-3.387920589e-30
-1.006105806e-29
-3.117063128e-29
-9.78452362e-29
-3.039121782e-28
-9.194449888e-28
-2.683421486e-27
-7.515349956e-27
-2.014906066e-26
-5.172495744e-26
-1.275640855e-25
-3.04921871e-25
-1.270551051e-90
-9.878041966e-90
-5.149353754e-89
-2.205653949e-88
-8.674679967e-88
-3.589938379e-87
-1.864376475e-86
-1.299228662e-85
-1.084485566e-84
-9.583758058e-84
-8.469388674e-83
-7.342782478e-82
-6.210617702e-81
-5.116423383e-80
-4.103919772e-79
-3.204679782e-78
-2.436410342e-77
-1.803459853e-76
-1.299801349e-75
-9.12218976e-75
-6.234659295e-74
-4.149946807e-73
-2.690488337e-72
-1.699073379e-71
-1.045276343e-70
-6.265093545e-70
-3.658897052e-69
-2.082303087e-68
-1.154944987e-67
-6.243852542e-67
-3.290592909e-66
-1.690758318e-65
-8.471042799e-65
-4.139009473e-64
-1.972553469e-63
-9.170782325e-63
-4.160071096e-62
-1.841573403e-61
-7.95714352e-61
-3.356612085e-60
-1.382714588e-59
-5.563969864e-59
-2.187884882e-58
-8.411370457e-58
-3.163731588e-57
-1.165245717e-56
-4.207935354e-56
-1.492513836e-55
-5.212130007e-55
-1.798020519e-54
-6.153435571e-54
-2.100256186e-53
-7.191746668e-53
-2.485092676e-52
-8.705812086e-52
-3.098955658e-51
-1.120008659e-50
-4.095008518e-50
-1.506347542e-49
-5.540554345e-49
-2.025834079e-48
-7.327093851e-48
-2.611301791e-47
-9.143860159e-47
-3.139547016e-46
-1.055531259e-45
-3.471717554e-45
-1.1164513e-44
-3.509271491e-44
-1.077979895e-43
-3.235998255e-43
-9.493673917e-43
-2.722321637e-42
-7.631201519e-42
-2.091594208e-41
-5.606417495e-41
-1.469996923e-40
-3.771153199e-40
-9.468249226e-40
-2.327104399e-39
-5.600482696e-39
-1.32011696e-38
-3.048540247e-38
-6.898910007e-38
-1.53037061e-37
-3.328609468e-37
-7.10084557e-37
-1.486231255e-36
-3.053333922e-36
-6.160587959e-36
-1.221797512e-35
-2.384994707e-35
-4.592229283e-35
-8.752022062e-35
-1.659693295e-34
-3.155335087e-34
-6.071867766e-34
-1.194829408e-33
-2.423804925e-33
-5.082644115e-33
-1.097496484e-32
-2.419445952e-32
-5.395216019e-32
-1.21017123e-31
-2.734796008e-31
-6.299152179e-31
-1.511362754e-30
-3.874909099e-30
-1.07697998e-29
-3.216826091e-29
-1.004556973e-28
-3.179454601e-28
-9.950536528e-28
-3.030057951e-27
-8.889912297e-27
-2.499532905e-26
-6.717699737e-26
-1.725950335e-25
-4.252333512e-25
-1.013323581e-24
-3.321007717e-90
-2.545455104e-89
-1.307397877e-88
-5.535871997e-88
-2.175741403e-87
-9.217215321e-87
-5.026819251e-86
-3.662367367e-85
-3.12898194e-84
-2.793543218e-83
-2.481868244e-82
-2.159742481e-81
-1.832619632e-80
-1.514321131e-79
-1.218224391e-78
-9.540229531e-78
-7.273533407e-77
-5.398746455e-76
-3.901465607e-75
-2.745287778e-74
-1.881098108e-73
-1.255222714e-72
-8.157536833e-72
-5.16366218e-71
-3.18392466e-70
-1.912544929e-69
-1.119316684e-68
-6.383077766e-68
-3.547277895e-67
-1.921308957e-66
-1.014359229e-65
-5.220757117e-65
-2.61989677e-64
-1.282032574e-63
-6.118520514e-63
-2.848376984e-62
-1.293669843e-61
-5.733257264e-61
-2.47980764e-60
-1.047057033e-59
-4.316907869e-59
-1.738454374e-58
-6.840948181e-58
-2.631839359e-57
-9.906046617e-57
-3.651441331e-56
-1.319913926e-55
-4.687830758e-55
-1.640174417e-54
-5.673480528e-54
-1.949171102e-53
-6.688268684e-53
-2.306228631e-52
-8.037743188e-52
-2.843503932e-51
-1.022681843e-50
-3.733335555e-50
-1.377341528e-49
-5.104991131e-49
-1.888944476e-48
-6.937717009e-48
-2.517263861e-47
-8.990327472e-47
-3.152083347e-46
-1.082908798e-45
-3.640978272e-45
-1.197079118e-44
-3.846726069e-44
-1.207830218e-43
-3.70525051e-43
-1.110516276e-42
-3.252071718e-42
-9.3063416e-42
-2.60288047e-41
-7.116568181e-41
-1.902487562e-40
-4.974025382e-40
-1.272134981e-39
-3.183524183e-39
-7.797318791e-39
-1.869633171e-38
-4.38989809e-38
-1.009609927e-37
-2.274937724e-37
-5.023661304e-37
-1.087500625e-36
-2.308509458e-36
-4.80711614e-36
-9.824096125e-36
-1.971734849e-35
-3.890518551e-35
-7.559761709e-35
-1.450633303e-34
-2.761118258e-34
-5.247877425e-34
-1.005159324e-33
-1.961407583e-33
-3.939233688e-33
-8.190377289e-33
-1.760698232e-32
-3.88203049e-32
-8.680445206e-32
-1.948936762e-31
-4.372032938e-31
-9.829063257e-31
-2.244945937e-30
-5.339037891e-30
-1.361095708e-29
-3.782731599e-29
-1.135847801e-28
-3.57691464e-28
-1.142762248e-27
-3.609206848e-27
-1.10822775e-26
-3.274745327e-26
-9.260348495e-26
-2.498877542e-25
-6.434092921e-25
-1.585109191e-24
-3.767515433e-24
-9.141694303e-90
-6.898508794e-89
-3.488075024e-88
-1.459996355e-87
-5.744040714e-87
-2.500162946e-86
-1.433455583e-85
-1.0880081e-84
-9.485169803e-84
-8.544102821e-83
-7.627822941e-82
-6.661531296e-81
-5.670452979e-80
-4.699675585e-79
-3.791825833e-78
-2.97796656e-77
-2.276780206e-76
-1.694550103e-75
-1.227858297e-74
-8.662476088e-74
-5.950741062e-73
-3.980664639e-72
-2.593219229e-71
-1.645324704e-70
-1.016806811e-69
-6.121188005e-69
-3.589977728e-68
-2.051390617e-67
-1.142239541e-66
-6.198203845e-66
-3.278155008e-65
-1.690058086e-64
-8.49461864e-64
-4.163033575e-63
-1.989610856e-62
-9.274455553e-62
-4.21737042e-61
-1.871134988e-60
-8.101507671e-60
-3.423911477e-59
-1.412838133e-58
-5.694012899e-58
-2.242247235e-57
-8.632343913e-57
-3.251499273e-56
-1.199517526e-55
-4.340513547e-55
-1.543779812e-54
-5.412345914e-54
-1.87765245e-53
-6.477616075e-53
-2.235308586e-52
-7.764456347e-52
-2.730242461e-51
-9.75544703e-51
-3.544865901e-50
-1.306782929e-49
-4.862858048e-49
-1.815226913e-48
-6.753917189e-48
-2.490719727e-47
-9.063051427e-47
-3.242829483e-46
-1.138154591e-45
-3.911814078e-45
-1.315125638e-44
-4.321704545e-44
-1.387572682e-43
-4.35183346e-43
-1.333121399e-42
-3.988930072e-42
-1.165926598e-41
-3.329463659e-41
-9.29054261e-41
-2.533716662e-40
-6.75491062e-40
-1.76086556e-39
-4.489333667e-39
-1.119687501e-38
-2.732640713e-38
-6.52754099e-38
-1.52654542e-37
-3.496035941e-37
-7.842646131e-37
-1.723803568e-36
-3.713436976e-36
-7.842730352e-36
-1.624547818e-35
-3.302214229e-35
-6.592320005e-35
-1.294201105e-34
-2.504048037e-34
-4.792046892e-34
-9.122401309e-34
-1.74191355e-33
-3.372885417e-33
-6.700894467e-33
-1.37827024e-32
-2.941612313e-32
-6.475684105e-32
-1.453191475e-31
-3.281825543e-31
-7.386002711e-31
-1.650240095e-30
-3.676902686e-30
-8.29800322e-30
-1.949776724e-29
-4.92989799e-29
-1.368377236e-28
-4.132171992e-28
-1.314412561e-27
-4.249570003e-27
-1.358539498e-26
-4.219750118e-26
-1.259712947e-25
-3.592499137e-25
-9.754963802e-25
-2.520966283e-24
-6.214894473e-24
-1.473153326e-23
-2.579914008e-89
-1.913973507e-88
-9.518273866e-88
-3.938546867e-87
-1.554220402e-86
-6.97727393e-86
-4.207748074e-85
-3.31548546e-84
-2.941681091e-83
-2.670720901e-82
-2.395092694e-81
-2.09893628e-80
-1.792262497e-79
-1.4898813e-78
-1.2055941e-77
-9.49532862e-77
-7.279860921e-76
-5.433016686e-75
-3.947241405e-74
-2.792034963e-73
-1.922889122e-72
-1.289475126e-71
-8.420559012e-71
-5.355078713e-70
-3.316907894e-69
-2.001142074e-68
-1.176108494e-67
-6.734139191e-67
-3.756930401e-66
-2.042428478e-65
-1.082125978e-64
-5.588288132e-64
-2.813266653e-63
-1.380783257e-62
-6.608336173e-62
-3.084458808e-61
-1.404289927e-60
-6.237385167e-60
-2.703363282e-59
-1.143569274e-58
-4.722774467e-58
-1.904833365e-57
-7.506437664e-57
-2.891904351e-56
-1.090084784e-55
-4.02492111e-55
-1.458048398e-54
-5.19371629e-54
-1.824857797e-53
-6.350792357e-53
-2.200693978e-52
-7.640094853e-52
-2.674362228e-51
-9.49076716e-51
-3.425610706e-50
-1.25756712e-49
-4.680283438e-49
-1.756052469e-48
-6.59894804e-48
-2.46784668e-47
-9.134798583e-47
-3.332367019e-46
-1.194258121e-45
-4.195122368e-45
-1.442238795e-44
-4.847684307e-44
-1.592060789e-43
-5.106852435e-43
-1.599692648e-42
-4.893132241e-42
-1.461576034e-41
-4.263677524e-41
-1.214897437e-40
-3.381931998e-40
-9.199150542e-40
-2.445585874e-39
-6.355809337e-39
-1.61515913e-38
-4.014445413e-38
-9.761391729e-38
-2.322645941e-37
-5.409405138e-37
-1.233453328e-36
-2.754329907e-36
-6.02485746e-36
-1.291343736e-35
-2.712990039e-35
-5.589267179e-35
-1.129887324e-34
-2.243481478e-34
-4.382695617e-34
-8.447246967e-34
-1.613849536e-33
-3.078465897e-33
-5.923515234e-33
-1.164162277e-32
-2.364443688e-32
-4.994411166e-32
-1.09440619e-31
-2.461240737e-31
-5.59899333e-31
-1.271339053e-30
-2.855871581e-30
-6.330746996e-30
-1.393023197e-29
-3.095770746e-29
-7.163849266e-29
-1.792298353e-28
-4.965942871e-28
-1.510609498e-27
-4.870167729e-27
-1.600441024e-26
-5.203839221e-26
-1.642720745e-25
-4.974765813e-25
-1.43548749e-24
-3.93110515e-24
-1.020757087e-23
-2.517608811e-23
-5.942783752e-23
-7.365716446e-89
-5.363907339e-88
-2.621158242e-87
-1.072409704e-86
-4.254546035e-86
-1.977454651e-85
-1.254083521e-84
-1.022211775e-83
-9.20956266e-83
-8.419917328e-82
-7.582980232e-81
-6.667807137e-80
-5.711260142e-79
-4.761867566e-78
-3.864489092e-77
-3.052360355e-76
-2.346638289e-75
-1.756095955e-74
-1.279303429e-73
-9.072630463e-73
-6.26425996e-72
-4.211158212e-71
-2.756592727e-70
-1.757150218e-69
-1.090826967e-68
-6.59547814e-68
-3.884433747e-67
-2.228635069e-66
-1.245748998e-65
-6.784963464e-65
-3.60117327e-64
-1.862825406e-63
-9.392736949e-63
-4.616920911e-62
-2.212711562e-61
-1.034130509e-60
-4.71383734e-60
-2.096040253e-59
-9.093673876e-59
-3.850310391e-58
-1.591448671e-57
-6.423687167e-57
-2.53322098e-56
-9.766321499e-56
-3.6841481e-55
-1.361522317e-54
-4.937967379e-54
-1.76182952e-53
-6.204954947e-53
-2.166762255e-52
-7.544173131e-52
-2.635889037e-51
-9.301517798e-51
-3.332296637e-50
-1.215105059e-49
-4.506086518e-49
-1.692588187e-48
-6.400592295e-48
-2.420296284e-47
-9.094015248e-47
-3.377515588e-46
-1.234898728e-45
-4.431681963e-45
-1.557796393e-44
-5.356195083e-44
-1.79974345e-43
-5.906504743e-43
-1.892691586e-42
-5.921011094e-42
-1.808286403e-41
-5.391605647e-41
-1.569631755e-40
-4.462446244e-40
-1.239147841e-39
-3.361526204e-39
-8.910615617e-39
-2.308536976e-38
-5.846918533e-38
-1.448059326e-37
-3.507705834e-37
-8.312752508e-37
-1.927789956e-36
-4.376001552e-36
-9.725457451e-36
-2.116775828e-35
-4.513377076e-35
-9.430772629e-35
-1.932082043e-34
-3.883860465e-34
-7.670149274e-34
-1.491341477e-33
-2.865316015e-33
-5.472667382e-33
-1.048641451e-32
-2.040776918e-32
-4.088802135e-32
-8.521915998e-32
-1.851510638e-31
-4.159894011e-31
-9.523195567e-31
-2.186224858e-30
-4.968896755e-30
-1.109617003e-29
-2.431724267e-29
-5.266650865e-29
-1.148743391e-28
-2.609785744e-28
-6.447652678e-28
-1.784149737e-27
-5.486761382e-27
-1.803283913e-26
-6.064187036e-26
-2.018814899e-25
-6.514262997e-25
-2.010082794e-24
-5.885529664e-24
-1.627510267e-23
-4.244586021e-23
-1.045288376e-22
-2.44858031e-22
-2.110039003e-88
-1.505891435e-87
-7.224364336e-87
-2.923521085e-86
-1.169130973e-85
-5.646464903e-85
-3.762049433e-84
-3.161145065e-83
-2.886262438e-82
-2.655393233e-81
-2.401039667e-80
-2.118249141e-79
-1.819955399e-78
-1.521932277e-77
-1.238672355e-76
-9.811418444e-76
-7.564223364e-75
-5.676109158e-74
-4.146045382e-73
-2.947965746e-72
-2.040607823e-71
-1.375187759e-70
-9.023472045e-70
-5.765260178e-69
-3.587094587e-68
-2.173585291e-67
-1.282825278e-66
-7.374840703e-66
-4.130303881e-65
-2.253717722e-64
-1.198281742e-63
-6.208857858e-63
-3.135570629e-62
-1.543542886e-61
-7.407874631e-61
-3.466604593e-60
-1.582053866e-59
-7.042417172e-59
-3.058409516e-58
-1.296124491e-57
-5.361702179e-57
-2.165829889e-56
-8.547217104e-56
-3.297569063e-55
-1.244911375e-54
-4.605046531e-54
-1.672224634e-53
-5.97685227e-53
-2.110319049e-52
-7.396100945e-52
-2.58827821e-51
-9.10457756e-51
-3.239949683e-50
-1.172018884e-49
-4.317725771e-49
-1.61718749e-48
-6.128850386e-48
-2.334911035e-47
-8.880638107e-47
-3.351245072e-46
-1.248435492e-45
-4.573661455e-45
-1.643253537e-44
-5.779200252e-44
-1.987045386e-43
-6.673773397e-43
-2.188496525e-42
-7.005117494e-42
-2.18842565e-41
-6.6725703e-41
-1.985775008e-40
-5.768934372e-40
-1.636285076e-39
-4.532112403e-39
-1.226053369e-38
-3.240253641e-38
-8.367757129e-38
-2.112038374e-37
-5.211510213e-37
-1.257478706e-36
-2.967688038e-36
-6.85208207e-36
-1.548179194e-35
-3.423928469e-35
-7.413966144e-35
-1.57229153e-34
-3.266953903e-34
-6.654689883e-34
-1.330110346e-33
-2.612833033e-33
-5.058322513e-33
-9.697067235e-33
-1.855103684e-32
-3.58191135e-32
-7.080568396e-32
-1.452705527e-31
-3.116141204e-31
-6.963813446e-31
-1.599719624e-30
-3.711595687e-30
-8.558405279e-30
-1.938701538e-29
-4.287851101e-29
-9.258903578e-29
-1.967467339e-28
-4.198056232e-28
-9.334243642e-28
-2.273734133e-27
-6.297488074e-27
-1.970519501e-26
-6.66118481e-26
-2.313359038e-25
-7.946815937e-25
-2.635926936e-24
-8.314146879e-24
-2.472594091e-23
-6.896992102e-23
-1.801669159e-22
-4.411195593e-22
-1.019748534e-21
-6.02928589e-88
-4.209923057e-87
-1.981033273e-86
-7.933634831e-86
-3.207614008e-85
-1.615058408e-84
-1.128548238e-83
-9.742929378e-83
-8.999834313e-82
-8.327073266e-81
-7.558191525e-80
-6.689634231e-79
-5.765126229e-78
-4.83532251e-77
-3.946752885e-76
-3.135052022e-75
-2.423724538e-74
-1.8236783e-73
-1.33562305e-72
-9.521309667e-72
-6.607392892e-71
-4.463743212e-70
-2.935941729e-69
-1.88017231e-68
-1.172450473e-67
-7.119801004e-67
-4.210794399e-66
-2.425599087e-65
-1.361075162e-64
-7.440400113e-64
-3.962916497e-63
-2.056783526e-62
-1.040336087e-61
-5.128768302e-61
-2.46482811e-60
-1.154922998e-59
-5.276952304e-59
-2.351551878e-58
-1.022252372e-57
-4.336104517e-57
-1.795193265e-56
-7.257054526e-56
-2.865974131e-55
-1.106511986e-54
-4.18069224e-54
-1.547995659e-53
-5.628613468e-53
-2.015550491e-52
-7.135913516e-52
-2.510714693e-51
-8.833900781e-51
-3.129580446e-50
-1.123436493e-49
-4.104175706e-49
-1.527516975e-48
-5.777152325e-48
-2.208207893e-47
-8.471636001e-47
-3.239539232e-46
-1.227320176e-45
-4.58459993e-45
-1.6824998e-44
-6.050813594e-44
-2.128782361e-43
-7.318331732e-43
-2.456637878e-42
-8.048824398e-42
-2.573291401e-41
-8.027399545e-41
-2.443411752e-40
-7.257551859e-40
-2.103835169e-39
-5.952949741e-39
-1.644496206e-38
-4.436110175e-38
-1.168781383e-37
-3.008323194e-37
-7.566184009e-37
-1.859922214e-36
-4.469734856e-36
-1.0503662e-35
-2.414211724e-35
-5.428638592e-35
-1.194528015e-34
-2.572823955e-34
-5.425912028e-34
-1.120919889e-33
-2.269911728e-33
-4.511021824e-33
-8.815741158e-33
-1.700332434e-32
-3.25679938e-32
-6.25602287e-32
-1.221890007e-31
-2.465021853e-31
-5.200125247e-31
-1.149839651e-30
-2.63867416e-30
-6.172869716e-30
-1.444534097e-29
-3.330330464e-29
-7.489039194e-29
-1.634837229e-28
-3.467451765e-28
-7.206606424e-28
-1.499299738e-27
-3.252724566e-27
-7.807070553e-27
-2.174785691e-26
-6.996443097e-26
-2.462759985e-25
-8.927184924e-25
-3.187208725e-24
-1.090507827e-23
-3.516919016e-23
-1.059976245e-22
-2.970160197e-22
-7.729029126e-22
-1.869558373e-21
-4.235686044e-21
-1.710309318e-87
-1.166328047e-86
-5.378825398e-86
-2.133410075e-85
-8.74889667e-85
-4.605425889e-84
-3.367196832e-83
-2.977258894e-82
-2.778308991e-81
-2.583967539e-80
-2.353948431e-79
-2.0900793e-78
-1.806671309e-77
-1.519740296e-76
-1.24403068e-75
-9.909654157e-75
-7.682365539e-74
-5.796047685e-73
-4.256115955e-72
-3.041896853e-71
-2.116255477e-70
-1.433170576e-69
-9.448802274e-69
-6.064936412e-68
-3.790446082e-67
-2.306734225e-66
-1.367078488e-65
-7.890648858e-65
-4.436128469e-64
-2.429460237e-63
-1.296231731e-62
-6.738634993e-62
-3.413696329e-61
-1.685399688e-60
-8.110915363e-60
-3.805279049e-59
-1.74070189e-58
-7.765355779e-58
-3.379009473e-57
-1.434553493e-56
-5.944011214e-56
-2.404659366e-55
-9.503346179e-55
-3.671796343e-54
-1.388441135e-53
-5.146257805e-53
-1.873833657e-52
-6.723457887e-52
-2.387322153e-51
-8.434597216e-51
-2.984722012e-50
-1.065283203e-49
-3.858566526e-49
-1.423749391e-48
-5.352972162e-48
-2.043739301e-47
-7.875659652e-47
-3.041310787e-46
-1.168797643e-45
-4.443973291e-45
-1.664071519e-44
-6.116183178e-44
-2.201298535e-43
-7.74621818e-43
-2.662330708e-42
-8.93132025e-42
-2.923404719e-41
-9.334718302e-41
-2.907552839e-40
-8.834494821e-40
-2.618808737e-39
-7.574477306e-39
-2.137964137e-38
-5.890178402e-38
-1.584253842e-37
-4.160840872e-37
-1.067320306e-36
-2.674636774e-36
-6.549273521e-36
-1.567401931e-35
-3.66713329e-35
-8.389437978e-35
-1.877161326e-34
-4.109039042e-34
-8.801751056e-34
-1.845602263e-33
-3.79021853e-33
-7.629630464e-33
-1.507607779e-32
-2.932037475e-32
-5.639018695e-32
-1.081125755e-31
-2.091887049e-31
-4.151591581e-31
-8.588763442e-31
-1.868833958e-30
-4.259141699e-30
-1.000453061e-29
-2.372111955e-29
-5.571609843e-29
-1.278773613e-28
-2.844203728e-28
-6.108523023e-28
-1.268751578e-27
-2.571068769e-27
-5.197784839e-27
-1.097098899e-26
-2.596764941e-26
-7.340838732e-26
-2.465789083e-25
-9.173912576e-25
-3.505058531e-24
-1.305785174e-23
-4.606005157e-23
-1.513318929e-22
-4.596349537e-22
-1.284737253e-21
-3.304664546e-21
-7.8378265e-21
-1.728253784e-20
-4.796317681e-87
-3.188499694e-86
-1.44001525e-85
-5.662431156e-85
-2.363589217e-84
-1.303590837e-83
-9.944254967e-83
-8.979127905e-82
-8.454264451e-81
-7.900419325e-80
-7.222431868e-79
-6.432893922e-78
-5.577229199e-77
-4.705131204e-76
-3.862520588e-75
-3.085401426e-74
-2.398484305e-73
-1.81441734e-72
-1.335844231e-71
-9.57187028e-71
-6.675784709e-70
-4.531947756e-69
-2.994929028e-68
-1.926760197e-67
-1.206844649e-66
-7.36012324e-66
-4.370924529e-65
-2.527840934e-64
-1.423844856e-63
-7.811838165e-63
-4.175166097e-62
-2.174061409e-61
-1.103038631e-60
-5.4537715e-60
-2.628148529e-59
-1.234554449e-58
-5.653918148e-58
-2.524909587e-57
-1.099746083e-56
-4.673045558e-56
-1.937803148e-55
-7.845221493e-55
-3.102691764e-54
-1.199671201e-53
-4.540224103e-53
-1.684633686e-52
-6.143095093e-52
-2.20889221e-51
-7.867538838e-51
-2.791965661e-50
-9.939557197e-50
-3.575090024e-49
-1.306893861e-48
-4.87079516e-48
-1.849681896e-47
-7.126729031e-47
-2.76760931e-46
-1.075313135e-45
-4.151467722e-45
-1.583593692e-44
-5.942611888e-44
-2.18699171e-43
-7.876253477e-43
-2.771834949e-42
-9.523259239e-42
-3.192466212e-41
-1.043876884e-40
-3.328804915e-40
-1.035209206e-39
-3.139700453e-39
-9.287791144e-39
-2.68016497e-38
-7.545849395e-38
-2.073162769e-37
-5.559355381e-37
-1.455364203e-36
-3.720235375e-36
-9.287896524e-36
-2.265227235e-35
-5.398223906e-35
-1.257279151e-34
-2.862541411e-34
-6.372515916e-34
-1.387443311e-33
-2.955207647e-33
-6.160171018e-33
-1.257427934e-32
-2.515937948e-32
-4.943737536e-32
-9.573095735e-32
-1.838147433e-31
-3.535988029e-31
-6.918630994e-31
-1.402177806e-30
-2.987870645e-30
-6.716895332e-30
-1.574742282e-29
-3.76970721e-29
-9.013171878e-29
-2.114939235e-28
-4.813302114e-28
-1.055291722e-27
-2.22306646e-27
-4.508131847e-27
-8.878795301e-27
-1.738108649e-26
-3.559868953e-26
-8.337571496e-26
-2.427997714e-25
-8.692358989e-25
-3.468769657e-24
-1.404648485e-23
-5.453650728e-23
-1.973329622e-22
-6.559662892e-22
-1.991562013e-21
-5.502408215e-21
-1.386107012e-20
-3.198589166e-20
-6.828240823e-20
-1.32458581e-86
-8.567326308e-86
-3.786531181e-85
-1.478052014e-84
-6.302905777e-84
-3.6473834e-83
-2.89371028e-82
-2.661237628e-81
-2.525476485e-80
-2.370463548e-79
-2.17438341e-78
-1.942639253e-77
-1.689210832e-76
-1.429180556e-75
-1.176551658e-74
-9.42439891e-74
-7.346083962e-73
-5.571964979e-72
-4.112946081e-71
-2.954563419e-70
-2.065713931e-69
-1.405708872e-68
-9.31128755e-68
-6.003890935e-67
-3.768829686e-66
-2.303336348e-65
-1.370656786e-64
-7.942434656e-64
-4.482083536e-63
-2.463468992e-62
-1.318884671e-61
-6.878676949e-61
-3.495280368e-60
-1.730647336e-59
-8.351024674e-59
-3.927681445e-58
-1.800816814e-57
-8.050411945e-57
-3.509752501e-56
-1.492650661e-55
-6.194544506e-55
-2.509706325e-54
-9.932663277e-54
-3.843385922e-53
-1.455802424e-52
-5.407770763e-52
-1.975051644e-51
-7.117851177e-51
-2.543567415e-50
-9.068649301e-50
-3.248949817e-49
-1.177980105e-48
-4.346644745e-48
-1.636285642e-47
-6.27480433e-47
-2.438923676e-46
-9.540614672e-46
-3.727983136e-45
-1.445309475e-44
-5.529344059e-44
-2.078902031e-43
-7.659171346e-43
-2.759673839e-42
-9.711564814e-42
-3.335121931e-41
-1.11713362e-40
-3.648784739e-40
-1.161950261e-39
-3.607578439e-39
-1.092087852e-38
-3.223736596e-38
-9.280762854e-38
-2.606170004e-37
-7.139982917e-37
-1.908766595e-36
-4.980333576e-36
-1.268547821e-35
-3.15494738e-35
-7.663203113e-35
-1.818255763e-34
-4.215212358e-34
-9.549875439e-34
-2.114883707e-33
-4.57921457e-33
-9.697046483e-33
-2.009160141e-32
-4.07586585e-32
-8.106083108e-32
-1.58431276e-31
-3.056879946e-31
-5.869845284e-31
-1.13644452e-30
-2.258907329e-30
-4.699032794e-30
-1.034875855e-29
-2.403153748e-29
-5.775373465e-29
-1.401845504e-28
-3.362955019e-28
-7.849496567e-28
-1.765028459e-27
-3.802541522e-27
-7.833629346e-27
-1.546240573e-26
-2.949643378e-26
-5.570128443e-26
-1.104757699e-25
-2.579925217e-25
-7.919626597e-25
-3.093140508e-24
-1.336937753e-23
-5.730078068e-23
-2.303690286e-22
-8.482432689e-22
-2.828896921e-21
-8.506933321e-21
-2.299299515e-20
-5.614684574e-20
-1.25210465e-19
-2.583416322e-19
-3.588751354e-86
-2.253763305e-85
-9.742485073e-85
-3.7811459e-84
-1.653381068e-83
-1.004494219e-82
-8.26003358e-82
-7.718835055e-81
-7.376320959e-80
-6.952101268e-79
-6.397929219e-78
-5.733288989e-77
-4.999845819e-76
-4.242228638e-75
-3.502090928e-74
-2.812920007e-73
-2.198477949e-72
-1.671910135e-71
-1.237285081e-70
-8.910378871e-70
-6.244983317e-69
-4.25977379e-68
-2.828141739e-67
-1.827654684e-66
-1.149756924e-65
-7.041457362e-65
-4.198613755e-64
-2.437636901e-63
-1.378157567e-62
-7.5880878e-62
-4.06930827e-61
-2.125697687e-60
-1.081768377e-59
-5.363794598e-59
-2.591627106e-58
-1.220383784e-57
-5.601641173e-57
-2.506732791e-56
-1.093882391e-55
-4.656070193e-55
-1.933777242e-54
-7.840320168e-54
-3.105163487e-53
-1.202424023e-52
-4.558627444e-52
-1.695342096e-51
-6.20200259e-51
-2.240490551e-50
-8.03434036e-50
-2.878616624e-49
-1.038110514e-48
-3.794997717e-48
-1.413627229e-47
-5.374643036e-47
-2.080740346e-46
-8.155445441e-46
-3.212146008e-45
-1.261753554e-44
-4.910446724e-44
-1.883535607e-43
-7.093475915e-43
-2.615810003e-42
-9.428110895e-42
-3.317360397e-41
-1.138627878e-40
-3.810631263e-40
-1.243178742e-39
-3.953203771e-39
-1.225303017e-38
-3.702074592e-38
-1.090442858e-37
-3.131694567e-37
-8.770958695e-37
-2.395991141e-36
-6.385252218e-36
-1.660398131e-35
-4.21383779e-35
-1.043916516e-34
-2.52504116e-34
-5.964516788e-34
-1.37618118e-33
-3.102125669e-33
-6.833137475e-33
-1.471170081e-32
-3.096873955e-32
-6.376923526e-32
-1.28557552e-31
-2.541512935e-31
-4.942749335e-31
-9.512785629e-31
-1.830765547e-30
-3.580893512e-30
-7.267775377e-30
-1.559157747e-29
-3.555385253e-29
-8.510575738e-29
-2.086797588e-28
-5.108942635e-28
-1.223936454e-27
-2.830648541e-27
-6.267940197e-27
-1.32289655e-26
-2.657086186e-26
-5.088059129e-26
-9.365335404e-26
-1.699042019e-25
-3.25999981e-25
-7.700082758e-25
-2.571154748e-24
-1.117682501e-23
-5.2345464e-23
-2.355392872e-22
-9.713125368e-22
-3.607795541e-21
-1.197118978e-20
-3.532607086e-20
-9.238388126e-20
-2.164654843e-19
-4.647384488e-19
-9.292532622e-19
-9.502220132e-86
-5.781780942e-85
-2.443432314e-84
-9.446860714e-84
-4.251264268e-83
-2.710944736e-82
-2.302498522e-81
-2.181749469e-80
-2.097929881e-79
-1.984915875e-78
-1.832482386e-77
-1.646972191e-76
-1.440385401e-75
-1.225551238e-74
-1.014508488e-73
-8.17062565e-73
-6.402725785e-72
-4.881768211e-71
-3.621841406e-70
-2.614723767e-69
-1.836975065e-68
-1.25595261e-67
-8.357436479e-67
-5.412792895e-66
-3.412378212e-65
-2.09413926e-64
-1.251145024e-63
-7.277739735e-63
-4.122093872e-62
-2.273553567e-61
-1.221263459e-60
-6.389495145e-60
-3.256414754e-59
-1.616877965e-58
-7.822333136e-58
-3.687887275e-57
-1.694620561e-56
-7.591023074e-56
-3.315572942e-55
-1.412430183e-54
-5.870608737e-54
-2.381878544e-53
-9.440091096e-53
-3.65829714e-52
-1.388200572e-51
-5.168956174e-51
-1.894208609e-50
-6.860191032e-50
-2.46908406e-49
-8.892070384e-49
-3.228676128e-48
-1.190259355e-47
-4.475979257e-47
-1.718491939e-46
-6.714337664e-46
-2.652645208e-45
-1.051476791e-44
-4.15030014e-44
-1.620812517e-43
-6.231655297e-43
-2.35027549e-42
-8.673474496e-42
-3.126792691e-41
-1.099919926e-40
-3.772969099e-40
-1.261515388e-39
-4.110543771e-39
-1.305179767e-38
-4.038417544e-38
-1.217738009e-37
-3.578890578e-37
-1.025315922e-36
-2.86387035e-36
-7.800333002e-36
-2.072141008e-35
-5.369773484e-35
-1.357719425e-34
-3.350186793e-34
-8.0690224e-34
-1.8973645e-33
-4.356558147e-33
-9.769775892e-33
-2.14024938e-32
-4.581298859e-32
-9.58527787e-32
-1.961364011e-31
-3.929275053e-31
-7.72293907e-31
-1.495425776e-30
-2.874957103e-30
-5.561048131e-30
-1.103818491e-29
-2.299663451e-29
-5.106731455e-29
-1.20561751e-28
-2.963729811e-28
-7.375332065e-28
-1.811961524e-27
-4.316541357e-27
-9.857083323e-27
-2.142778386e-26
-4.417230359e-26
-8.62218579e-26
-1.595821787e-25
-2.821740841e-25
-4.894871398e-25
-9.091591691e-25
-2.223670955e-24
-8.371209274e-24
-4.085713535e-23
-2.053884795e-22
-9.589551386e-22
-4.017032414e-21
-1.493234697e-20
-4.892204051e-20
-1.403616302e-19
-3.513572441e-19
-7.849597565e-19
-1.62917504e-18
-3.161568709e-18
-2.448916014e-85
-1.440508732e-84
-5.950087288e-84
-2.296708139e-83
-1.067327998e-82
-7.13612447e-82
-6.238555378e-81
-5.983183033e-80
-5.785427286e-79
-5.493680334e-78
-5.087336596e-77
-4.585537257e-76
-4.021587042e-75
-3.431176385e-74
-2.84797329e-73
-2.299767817e-72
-1.806829855e-71
-1.381117491e-70
-1.027207499e-69
-7.433702731e-69
-5.234869584e-68
-3.587337186e-67
-2.392429436e-66
-1.55283517e-65
-9.809974402e-65
-6.032422175e-64
-3.611076956e-63
-2.104438958e-62
-1.194081037e-61
-6.597206124e-61
-3.5494909e-60
-1.859888068e-59
-9.492645168e-59
-4.719672801e-58
-2.286218043e-57
-1.079108106e-56
-4.963921054e-56
-2.225755868e-55
-9.730204181e-55
-4.148406447e-54
-1.725517652e-53
-7.005831432e-53
-2.778560024e-52
-1.077592726e-51
-4.092924972e-51
-1.52591923e-50
-5.601980239e-50
-2.034234985e-49
-7.349670988e-49
-2.661077075e-48
-9.730297237e-48
-3.617789712e-47
-1.373403608e-46
-5.323632103e-46
-2.098409248e-45