/*--------------------------------*- C++ -*----------------------------------*\
  =========                 |
  \\      /  F ield         | OpenFOAM: The Open Source CFD Toolbox
   \\    /   O peration     | Website:  https://openfoam.org
    \\  /    A nd           | Version:  7
     \\/     M anipulation  |
\*---------------------------------------------------------------------------*/
FoamFile
{
    version     2.0;
    format      ascii;
    class       volScalarField;
    location    "0.361";
    object      Y_CH3;
}
// * * * * * * * * * * * * * * * * * * * * * * * * * * * * * * * * * * * * * //

dimensions      [0 0 0 0 0 0 0];

internalField   nonuniform List<scalar> 
35870
(
1.423284613e-77
1.234132942e-76
7.53611176e-76
3.923864908e-75
1.872314796e-74
8.492205046e-74
3.735842368e-73
1.611218242e-72
6.850783173e-72
2.879116429e-71
1.197355899e-70
4.929460607e-70
2.009326562e-69
8.108743233e-69
3.239577647e-68
1.281173209e-67
5.015151454e-67
1.943026602e-66
7.450312725e-66
2.827171228e-65
1.061727313e-64
3.946052825e-64
1.451537535e-63
5.284991074e-63
1.90487329e-62
6.797674307e-62
2.402217858e-61
8.408512446e-61
2.916041645e-60
1.002209807e-59
3.414662101e-59
1.15371904e-58
3.866864814e-58
1.286076112e-57
4.245819155e-57
1.391784247e-56
4.531222054e-56
1.46552402e-55
4.709644683e-55
1.504056975e-54
4.773802089e-54
1.505952505e-53
4.721816623e-53
1.471449936e-52
4.557162072e-52
1.402553819e-51
4.289206787e-51
1.303223797e-50
3.933659006e-50
1.179403658e-49
3.512140348e-49
1.038688162e-48
3.050481355e-48
8.895973487e-48
2.575958102e-47
7.406084321e-47
2.114136544e-46
5.99193323e-46
1.686125447e-45
4.71091102e-45
1.306827125e-44
3.599465779e-44
9.84407356e-44
2.673252629e-43
7.208514397e-43
1.930211827e-42
5.132519787e-42
1.355301318e-41
3.554133635e-41
9.256298471e-41
2.394195581e-40
6.150543888e-40
1.569321819e-39
3.977115124e-39
1.001140971e-38
2.503264808e-38
6.217516159e-38
1.534053351e-37
3.760048503e-37
9.155730643e-37
2.214907692e-36
5.323509373e-36
1.271269321e-35
3.016425368e-35
7.111852262e-35
1.66620805e-34
3.879317452e-34
8.976077204e-34
2.064198175e-33
4.718255458e-33
1.072043165e-32
2.42149676e-32
5.438026845e-32
1.214327504e-31
2.696653305e-31
5.956283307e-31
1.308764881e-30
2.861352674e-30
6.225942469e-30
1.34859827e-29
2.909006829e-29
6.251222885e-29
1.338915368e-28
2.860062723e-28
6.097639397e-28
1.298777985e-27
2.767038009e-27
5.905394366e-27
1.264671984e-26
2.722834094e-26
5.903933143e-26
1.290980419e-25
2.847758722e-25
6.330850198e-25
1.414611678e-24
3.164249227e-24
7.050576878e-24
1.55787063e-23
3.405455382e-23
7.390150589e-23
2.442229148e-77
2.104550526e-76
1.277873769e-75
6.626757676e-75
3.155420319e-74
1.430677081e-73
6.299722246e-73
2.721826937e-72
1.159926235e-71
4.886918241e-71
2.037665122e-70
8.411149911e-70
3.437597242e-69
1.390907424e-68
5.571410738e-68
2.209046077e-67
8.669444486e-67
3.367322471e-66
1.294405003e-65
4.924114704e-65
1.853800013e-64
6.906864076e-64
2.546899928e-63
9.295927157e-63
3.358784812e-62
1.201570834e-61
4.256801485e-61
1.493771266e-60
5.193595756e-60
1.789620422e-59
6.113631582e-59
2.071210926e-58
6.961155501e-58
2.321737685e-57
7.687025268e-57
2.527227208e-56
8.252523636e-56
2.677220838e-55
8.630115852e-55
2.764670306e-54
8.802440154e-54
2.78557002e-53
8.761455298e-53
2.738880596e-52
8.508934951e-52
2.626897379e-51
8.058067515e-51
2.455778653e-50
7.434784236e-50
2.235735356e-49
6.677303854e-49
1.980484901e-48
5.83308717e-48
1.705905997e-47
4.953600199e-47
1.428175623e-46
4.088163714e-46
1.161868793e-45
3.278449278e-45
9.184729901e-45
2.554804439e-44
7.055881524e-44
1.934897065e-43
5.268526224e-43
1.424483899e-42
3.824511268e-42
1.019664652e-41
2.699695981e-41
7.09841594e-41
1.853574548e-40
4.806993962e-40
1.238126037e-39
3.167355411e-39
8.047897112e-39
2.031117024e-38
5.091760331e-38
1.267930816e-37
3.136409068e-37
7.707182947e-37
1.881490283e-36
4.56318459e-36
1.099538819e-35
2.632371115e-35
6.261757952e-35
1.480055856e-34
3.476276937e-34
8.113887509e-34
1.882124615e-33
4.339123119e-33
9.943121306e-33
2.264892811e-32
5.128832733e-32
1.154735209e-31
2.585192595e-31
5.755862334e-31
1.274689387e-30
2.808364288e-30
6.156725255e-30
1.343379893e-29
2.918284851e-29
6.3137126e-29
1.360991214e-28
2.924567268e-28
6.268875777e-28
1.341498965e-27
2.868927976e-27
6.139489696e-27
1.316812323e-26
2.835831567e-26
6.14428997e-26
1.341773234e-25
2.957180246e-25
6.578575837e-25
1.475286997e-24
3.324553422e-24
7.493904996e-24
1.680352862e-23
3.729215623e-23
8.168243346e-23
1.771084011e-22
5.883395755e-77
5.025394722e-76
3.027608242e-75
1.561504069e-74
7.415066726e-74
3.36077017e-73
1.481876551e-72
6.418133204e-72
2.743463958e-71
1.159699336e-70
4.85220763e-70
2.009873004e-69
8.242786251e-69
3.346639879e-68
1.345101216e-67
5.351255144e-67
2.107117447e-66
8.211298156e-66
3.16675003e-65
1.208577377e-64
4.564594023e-64
1.706099532e-63
6.311246703e-63
2.310860134e-62
8.376130891e-62
3.006054071e-61
1.068384814e-60
3.76131488e-60
1.312061195e-59
4.536278741e-59
1.554952852e-58
5.286280212e-58
1.782977908e-57
5.968263706e-57
1.983328947e-56
6.545036499e-56
2.145424144e-55
6.987030324e-55
2.261132533e-54
7.272224195e-54
2.32460668e-53
7.385589767e-53
2.332216398e-52
7.319459044e-52
2.282874039e-51
7.075136526e-51
2.178658552e-50
6.664904924e-50
2.025343651e-49
6.113013644e-49
1.832400033e-48
5.454505875e-48
1.612237229e-47
4.731682251e-47
1.378784677e-46
3.988951597e-46
1.145764234e-45
3.267408843e-45
9.250923463e-45
2.600429523e-44
7.2575684e-44
2.011096365e-43
5.533264309e-43
1.511641385e-42
4.100601483e-42
1.104563633e-41
2.954549776e-41
7.848059219e-41
2.070220194e-40
5.423341545e-40
1.410997661e-39
3.645921599e-39
9.356704035e-39
2.384986761e-38
6.038232091e-38
1.518476125e-37
3.79310321e-37
9.412065913e-37
2.320039883e-36
5.681250816e-36
1.382123428e-35
3.340571826e-35
8.022018607e-35
1.914054414e-34
4.537881861e-34
1.069061593e-33
2.502808309e-33
5.823111504e-33
1.346529368e-32
3.094881638e-32
7.070958163e-32
1.606061288e-31
3.626975359e-31
8.144825263e-31
1.819015921e-30
4.040931392e-30
8.9309715e-30
1.964196446e-29
4.299822349e-29
9.371944633e-29
2.034599689e-28
4.401448575e-28
9.49327158e-28
2.04290136e-27
4.390011006e-27
9.431135997e-27
2.028328506e-26
4.374629039e-26
9.480066368e-26
2.068599101e-25
4.55341617e-25
1.012409302e-24
2.273482142e-24
5.1476744e-24
1.170773058e-23
2.660752313e-23
6.004827043e-23
1.338173781e-22
2.934691963e-22
6.349399561e-22
1.598160418e-76
1.351716382e-75
8.075563106e-75
4.141626866e-74
1.961501675e-73
8.888420915e-73
3.925208932e-72
1.704389283e-71
7.30819534e-71
3.09964569e-70
1.301387632e-69
5.409307507e-69
2.22612276e-68
9.06923348e-68
3.657544565e-67
1.45997381e-66
5.767905834e-66
2.255092073e-65
8.725216459e-65
3.340667286e-64
1.265749559e-63
4.74600752e-63
1.76122052e-62
6.469119208e-62
2.352291393e-61
8.468901691e-61
3.019618616e-60
1.06653038e-59
3.732643373e-59
1.294833936e-58
4.453590005e-58
1.519325573e-57
5.142628762e-57
1.727654642e-56
5.762410543e-56
1.90875834e-55
6.280693358e-55
2.053357855e-54
6.671030482e-54
2.153975999e-53
6.912512675e-53
2.204879901e-52
6.989997794e-52
2.202348005e-51
6.895631012e-51
2.145335121e-50
6.631299506e-50
2.036254824e-49
6.210757098e-49
1.881429479e-48
5.660039453e-48
1.690838471e-47
5.015399917e-47
1.477086982e-46
4.31903206e-46
1.253820718e-45
3.613660582e-45
1.03400129e-44
2.937375365e-44
8.284540761e-44
2.319831737e-43
6.449615443e-43
1.780376918e-42
4.879812817e-42
1.328067673e-41
3.589021522e-41
9.631273397e-41
2.56658745e-40
6.792129334e-40
1.785032319e-39
4.658961895e-39
1.207668851e-38
3.109102179e-38
7.94993364e-38
2.019047946e-37
5.09328527e-37
1.276238588e-36
3.176606773e-36
7.854338655e-36
1.929249291e-35
4.707777059e-35
1.141324239e-34
2.74906961e-34
6.579079857e-34
1.564473642e-33
3.696731261e-33
8.680393175e-33
2.025633791e-32
4.698010655e-32
1.083013778e-31
2.481765093e-31
5.653782652e-31
1.280618844e-30
2.884435539e-30
6.461401459e-30
1.439768275e-29
3.191853478e-29
7.0417072e-29
1.546364293e-28
3.381306678e-28
7.364772355e-28
1.598616107e-27
3.4600948e-27
7.473406939e-27
1.6122616e-26
3.478314258e-26
7.515458931e-26
1.629317307e-25
3.551496946e-25
7.801145936e-25
1.730081356e-24
3.878649935e-24
8.787133023e-24
2.007515135e-23
4.604693309e-23
1.054190614e-22
2.392196375e-22
5.347245293e-22
1.172695366e-21
2.528225368e-21
4.566321478e-76
3.820458105e-75
2.262265829e-74
1.15359688e-73
5.449702177e-73
2.469476707e-72
1.092389181e-71
4.755919358e-71
2.045705867e-70
8.705648437e-70
3.667643201e-69
1.529727687e-68
6.316953031e-68
2.582255026e-67
1.044899279e-66
4.184736191e-66
1.658688733e-65
6.506063354e-65
2.525369373e-64
9.699818631e-64
3.686812219e-63
1.386745791e-62
5.162311925e-62
1.902116114e-61
6.938227002e-61
2.505863576e-60
8.963296191e-60
3.176071049e-59
1.11520671e-58
3.88149194e-58
1.339577806e-57
4.585757416e-57
1.55768255e-56
5.251886801e-56
1.758157184e-55
5.845582562e-55
1.930780891e-54
6.336646463e-54
2.066679599e-53
6.6991059e-53
2.158302834e-52
6.911318004e-52
2.199613368e-51
6.957254647e-51
2.18672478e-50
6.82913977e-50
2.118853189e-49
6.530481914e-49
1.999160714e-48
6.077999906e-48
1.8350258e-47
5.501187375e-47
1.637474763e-46
4.8392114e-46
1.419844642e-45
4.13583971e-45
1.196021324e-44
3.433734394e-44
9.787031196e-44
2.769482483e-43
7.780702054e-43
2.170312203e-42
6.010640643e-42
1.652825072e-41
4.512876738e-41
1.223526756e-40
3.293971253e-40
8.806134029e-40
2.33788227e-39
6.163742168e-39
1.613850713e-38
4.196545566e-38
1.083784577e-37
2.779901225e-37
7.082138138e-37
1.792097798e-36
4.504386337e-36
1.124608878e-35
2.789179407e-35
6.87192546e-35
1.681990893e-34
4.090052503e-34
9.881258718e-34
2.37188288e-33
5.657090333e-33
1.340711109e-32
3.157515231e-32
7.390139821e-32
1.71905243e-31
3.974579044e-31
9.134809227e-31
2.087181695e-30
4.741602934e-30
1.071157452e-29
2.406637272e-29
5.378655427e-29
1.195992983e-28
2.646536537e-28
5.829594427e-28
1.278658277e-27
2.793797345e-27
6.083827092e-27
1.321176207e-26
2.863474314e-26
6.200078426e-26
1.342884149e-25
2.914042614e-25
6.348001116e-25
1.391261485e-24
3.075072412e-24
6.86775816e-24
1.551718722e-23
3.544684093e-23
8.166193086e-23
1.887737901e-22
4.350140894e-22
9.916629597e-22
2.221064314e-21
4.86506956e-21
1.043665443e-20
1.336290805e-75
1.104765068e-74
6.480636248e-74
3.285534216e-73
1.548426791e-72
7.017931725e-72
3.110193684e-71
1.357808761e-70
5.859131216e-70
2.501790669e-69
1.057605168e-68
4.426234189e-68
1.834018942e-67
7.522371161e-67
3.054045295e-66
1.227147605e-65
4.879855713e-65
1.920250011e-64
7.47738127e-64
2.881117596e-63
1.098532406e-62
4.144921507e-62
1.547814455e-61
5.720935565e-61
2.093335935e-60
7.584319712e-60
2.721504414e-59
9.674544904e-59
3.408130315e-58
1.190158038e-57
4.12142125e-57
1.415771344e-56
4.826086929e-56
1.633039865e-55
5.486993498e-55
1.831165073e-54
6.071275243e-54
2.000199741e-53
6.548904015e-53
2.131095079e-52
6.892743509e-52
2.215807441e-51
7.079482546e-51
2.247839501e-50
7.09215868e-50
2.223254857e-49
6.923781622e-49
2.14183714e-48
6.580622517e-48
2.007880602e-47
6.083565357e-47
1.83017861e-46
5.466589707e-46
1.621088503e-45
4.772548119e-45
1.394887542e-44
4.047347563e-44
1.16585803e-43
3.334031393e-43
9.465646012e-43
2.668069659e-42
7.466577937e-42
2.074606423e-41
5.723373693e-41
1.567774877e-40
4.264257558e-40
1.151712593e-39
3.088861752e-39
8.226575402e-39
2.17579743e-38
5.714906098e-38
1.490745669e-37
3.86202023e-37
9.936993137e-37
2.53944122e-36
6.445813833e-36
1.625130213e-35
4.069910182e-35
1.012476806e-34
2.502112152e-34
6.142794257e-34
1.49823364e-33
3.630494304e-33
8.740661167e-33
2.090916894e-32
4.970120572e-32
1.173981271e-31
2.755807366e-31
6.429288963e-31
1.490872096e-30
3.436550045e-30
7.87510943e-30
1.794297915e-29
4.065333805e-29
9.16068847e-29
2.05337123e-28
4.579320188e-28
1.016324592e-27
2.245329597e-27
4.939597484e-27
1.082528928e-26
2.364552005e-26
5.150984679e-26
1.120025025e-25
2.433359884e-25
5.289651708e-25
1.15241782e-24
2.521625258e-24
5.554458667e-24
1.234800206e-23
2.775890279e-23
6.317758715e-23
1.454401195e-22
3.376688046e-22
7.861279778e-22
1.822043327e-21
4.168770811e-21
9.345684282e-21
2.042052422e-20
4.352470648e-20
3.952445901e-75
3.225338983e-74
1.873391111e-73
9.44229883e-73
4.440249336e-72
2.01329719e-71
8.940523748e-71
3.914249861e-70
1.694514316e-69
7.259813044e-69
3.079496917e-68
1.293202675e-67
5.376535756e-67
2.212602373e-66
9.012799363e-66
3.633283283e-65
1.449484405e-64
5.722066887e-64
2.235224353e-63
8.639674882e-63
3.304504748e-62
1.250721966e-61
4.685032715e-61
1.737045088e-60
6.37586513e-60
2.317300286e-59
8.341696988e-59
2.97490754e-58
1.051426574e-57
3.683940565e-57
1.280055392e-56
4.412440432e-56
1.509440742e-55
5.126063972e-55
1.728691886e-54
5.79073214e-54
1.927223226e-53
6.373677686e-53
2.094899707e-52
6.843571203e-52
2.222077612e-51
7.171046604e-51
2.299994884e-50
7.330822029e-50
2.321730194e-49
7.305500577e-49
2.283555644e-48
7.089925008e-48
2.186193828e-47
6.694317352e-47
2.035423121e-46
6.144703512e-46
1.84170178e-45
5.48013218e-45
1.618839727e-44
4.747349885e-44
1.382075299e-43
3.994366044e-43
1.146055547e-42
3.264476868e-42
9.231706508e-42
2.591925004e-41
7.22515689e-41
1.999720382e-40
5.495425621e-40
1.499533987e-39
4.063001112e-39
1.093165208e-38
2.920689294e-38
7.749220409e-38
2.041814e-37
5.342842194e-37
1.388478652e-36
3.58368378e-36
9.186647744e-36
2.339026164e-35
5.915319163e-35
1.485942147e-34
3.707863736e-34
9.190969712e-34
2.263240025e-33
5.536668481e-33
1.345654194e-32
3.249416168e-32
7.796255466e-32
1.858658805e-31
4.403246565e-31
1.036658803e-30
2.425613604e-30
5.641151193e-30
1.304115694e-29
2.997187162e-29
6.848785558e-29
1.556233992e-28
3.516934285e-28
7.906032685e-28
1.768252962e-27
3.935730156e-27
8.72007207e-27
1.923879036e-26
4.228378624e-26
9.262733573e-26
2.023732622e-25
4.413622785e-25
9.619038787e-25
2.097957253e-24
4.58723926e-24
1.007809333e-23
2.23016603e-23
4.984147313e-23
1.12723954e-22
2.58283723e-22
5.988445083e-22
1.400245983e-21
3.280783579e-21
7.64193603e-21
1.753248977e-20
3.929960975e-20
8.55475252e-20
1.808802636e-19
1.171923703e-74
9.428803021e-74
5.420190033e-73
2.716001906e-72
1.274673353e-71
5.783381629e-71
2.573842598e-70
1.130153861e-69
4.908492556e-69
2.110038024e-68
8.980885867e-68
3.784186988e-67
1.57857157e-66
6.517848785e-66
2.663700073e-65
1.07729002e-64
4.311619958e-64
1.707491368e-63
6.691041376e-63
2.594334451e-62
9.953680029e-62
3.779039578e-61
1.419958494e-60
5.281027001e-60
1.94445259e-59
7.08927383e-59
2.560059714e-58
9.159339863e-58
3.247788255e-57
1.141735497e-56
3.980657389e-56
1.376919263e-55
4.726944236e-55
1.61106954e-54
5.453090586e-54
1.833494352e-53
6.125214807e-53
2.03347976e-52
6.709424796e-52
2.200306396e-51
7.171966846e-51
2.323460195e-50
7.480721015e-50
2.39342282e-49
7.608724922e-49
2.403059826e-48
7.539119448e-48
2.349224714e-47
7.269847292e-47
2.233969766e-46
6.816194812e-46
2.064847391e-45
6.209993858e-45
1.854105794e-44
5.495501708e-44
1.616979976e-43
4.723090023e-43
1.369543464e-42
3.942396432e-42
1.126649453e-41
3.196481683e-41
9.003729034e-41
2.51797802e-40
6.991551867e-40
1.92752605e-39
5.276485046e-39
1.434232505e-38
3.871125545e-38
1.037552637e-37
2.761534673e-37
7.299122883e-37
1.915945316e-36
4.994597178e-36
1.29311062e-35
3.325079727e-35
8.49206636e-35
2.154190631e-34
5.427876054e-34
1.358527437e-33
3.377666662e-33
8.342399847e-33
2.046953754e-32
4.989837957e-32
1.20849899e-31
2.908102856e-31
6.953463046e-31
1.652142921e-30
3.901029614e-30
9.154398545e-30
2.135192011e-29
4.950427005e-29
1.14102199e-28
2.614829219e-28
5.958673778e-28
1.350449754e-27
3.044427365e-27
6.828359422e-27
1.52409898e-26
3.386209871e-26
7.491478677e-26
1.651015088e-25
3.626595116e-25
7.945080423e-25
1.737566033e-24
3.797641118e-24
8.307703979e-24
1.822401044e-23
4.018282751e-23
8.92868755e-23
2.004972816e-22
4.559344128e-22
1.051076846e-21
2.452803157e-21
5.772137029e-21
1.360065092e-20
3.181241716e-20
7.311818948e-20
1.636958438e-19
3.545117009e-19
7.423391896e-19
3.462799526e-74
2.743634522e-73
1.560292322e-72
7.773525082e-72
3.641961585e-71
1.653879596e-70
7.377565285e-70
3.249140205e-69
1.41579242e-68
6.106599651e-68
2.607911264e-67
1.102557136e-66
4.614617072e-66
1.911622854e-65
7.83781688e-65
3.180078586e-64
1.276812423e-63
5.07238534e-63
1.993899256e-62
7.754983559e-62
2.984539238e-61
1.136604024e-60
4.283879032e-60
1.598146298e-59
5.902548378e-59
2.158734197e-58
7.820213374e-58
2.806877059e-57
9.985306013e-57
3.521926596e-56
1.232083344e-55
4.276562561e-55
1.473327214e-54
5.039599551e-54
1.712047481e-53
5.77789058e-53
1.937531637e-52
6.456854895e-52
2.138605022e-51
7.04039719e-51
2.303668359e-50
7.491664518e-50
2.42123607e-49
7.775872474e-49
2.481191384e-48
7.865248477e-48
2.476554222e-47
7.744809915e-47
2.405196911e-46
7.416908747e-46
2.270860458e-45
6.902768597e-45
2.083047667e-44
6.240260036e-44
1.855772413e-43
5.478500361e-43
1.605516285e-42
4.670770729e-42
1.348934603e-41
3.867510888e-41
1.100833882e-40
3.11081198e-40
8.727706517e-40
2.431161182e-39
6.723995906e-39
1.846519284e-38
5.03506932e-38
1.363309855e-37
3.665501709e-37
9.78665326e-37
2.594831507e-36
6.832359577e-36
1.786617198e-35
4.639855863e-35
1.196748805e-34
3.065778977e-34
7.800681663e-34
1.971486394e-33
4.94928289e-33
1.234226191e-32
3.057504965e-32
7.524481318e-32
1.839677335e-31
4.468714965e-31
1.078504464e-30
2.58633062e-30
6.163059232e-30
1.459449734e-29
3.43475979e-29
8.034440522e-29
1.868137549e-28
4.318198178e-28
9.924035975e-28
2.267899968e-27
5.154342796e-27
1.165226448e-26
2.620704212e-26
5.865382894e-26
1.306655796e-25
2.898411066e-25
6.404266068e-25
1.410346837e-24
3.09757349e-24
6.791402196e-24
1.488135519e-23
3.264097876e-23
7.180603544e-23
1.58827661e-22
3.541874542e-22
7.986663873e-22
1.824940577e-21
4.229936349e-21
9.928001173e-21
2.34962417e-20
5.56336055e-20
1.305659045e-19
3.003583206e-19
6.708631431e-19
1.443373969e-18
2.987809404e-18
1.014773928e-73
7.908415747e-73
4.447631157e-72
2.203403695e-71
1.030820481e-70
4.686417579e-70
2.095643114e-69
9.257544417e-69
4.047145443e-68
1.751452037e-67
7.504864245e-67
3.183403861e-66
1.336761378e-65
5.555614722e-65
2.285187431e-64
9.301341058e-64
3.746294525e-63
1.492933698e-62
5.886727792e-62
2.296595363e-61
8.865587827e-61
3.386587754e-60
1.280305384e-59
4.790929912e-59
1.774916651e-58
6.511555821e-58
2.366290276e-57
8.520342607e-57
3.040910686e-56
1.076114221e-55
3.777317901e-55
1.315631642e-54
4.548480702e-54
1.561421994e-53
5.323841363e-53
1.803383212e-52
6.070113831e-52
2.030546819e-51
6.75111526e-51
2.230993193e-50
7.327820777e-50
2.392101215e-49
7.760200482e-49
2.501521407e-48
8.011555912e-48
2.548890674e-47
8.054685838e-47
2.527862464e-46
7.87799701e-46
2.437767614e-45
7.48940227e-45
2.284294764e-44
6.916504072e-44
2.078915596e-43
6.202907795e-43
1.837214381e-42
5.401727493e-42
1.576592949e-41
4.568030782e-41
1.31392734e-40
3.751960195e-40
1.063657912e-39
2.993748841e-39
8.365872374e-39
2.321145205e-38
6.394419359e-38
1.749121546e-37
4.750847719e-37
1.281346463e-36
3.431772423e-36
9.127230685e-36
2.410685687e-35
6.323183937e-35
1.647167107e-34
4.261470707e-34
1.095002684e-33
2.794597521e-33
7.084144624e-33
1.783764014e-32
4.461546579e-32
1.108530108e-31
2.73615522e-31
6.709404649e-31
1.634547741e-30
3.956436171e-30
9.515427713e-30
2.274037582e-29
5.400606313e-29
1.274667457e-28
2.990185719e-28
6.972488088e-28
1.616260897e-27
3.724941582e-27
8.536261605e-27
1.945440752e-26
4.410026832e-26
9.945285711e-26
2.231734627e-25
4.984591571e-25
1.108466624e-24
2.455254604e-24
5.419852699e-24
1.193137514e-23
2.621898048e-23
5.758120528e-23
1.265904796e-22
2.791588008e-22
6.191133915e-22
1.384805949e-21
3.133652444e-21
7.189757626e-21
1.674256076e-20
3.949198397e-20
9.39212787e-20
2.232907688e-19
5.253596675e-19
1.208468372e-18
2.689753606e-18
5.740498479e-18
1.172380162e-17
2.936957013e-73
2.248555091e-72
1.250157988e-71
6.159822386e-71
2.878483782e-70
1.310428248e-69
5.87499621e-69
2.603307051e-68
1.141815753e-67
4.95772997e-67
2.131386236e-66
9.070570531e-66
3.821258312e-65
1.593231841e-64
6.574276483e-64
2.684330019e-63
1.084532695e-62
4.335296081e-62
1.71466393e-61
6.709768824e-61
2.598022453e-60
9.954216891e-60
3.774580588e-59
1.416739104e-58
5.264678931e-58
1.937383012e-57
7.062409064e-57
2.551039706e-56
9.134063177e-56
3.242996431e-55
1.142165676e-54
3.991792705e-54
1.384903133e-53
4.771137843e-53
1.632685166e-52
5.550911494e-52
1.875386212e-51
6.297059168e-51
2.101545421e-50
6.971108219e-50
2.298344583e-49
7.530920447e-49
2.45220643e-48
7.933923416e-48
2.550247148e-47
8.142893781e-47
2.582369169e-46
8.13290286e-46
2.543381169e-45
7.897211028e-45
2.434435242e-44
7.450035315e-44
2.263263591e-43
6.8252176e-43
2.043132158e-42
6.071194323e-42
1.790824106e-41
5.243720171e-41
1.524203703e-40
4.398193051e-40
1.259926726e-39
3.583179167e-39
1.011711806e-38
2.836109064e-38
7.893679076e-38
2.181417662e-37
5.985675923e-37
1.63085229e-36
4.412199017e-36
1.185350011e-35
3.162287268e-35
8.377830661e-35
2.20419512e-34
5.7592996e-34
1.494527446e-33
3.851825226e-33
9.859895341e-33
2.506898386e-32
6.331076428e-32
1.58821944e-31
3.95777988e-31
9.797566092e-31
2.409512413e-30
5.887148775e-30
1.429119121e-29
3.44702326e-29
8.261521639e-29
1.967642978e-28
4.657327518e-28
1.095641429e-27
2.562017378e-27
5.955552798e-27
1.376375783e-26
3.162863297e-26
7.227883801e-26
1.642844289e-25
3.714599535e-25
8.356985931e-25
1.871187898e-24
4.171139037e-24
9.260465684e-24
2.048732454e-23
4.519677885e-23
9.952063961e-23
2.189930122e-22
4.823836668e-22
1.065871778e-21
2.368912551e-21
5.311427085e-21
1.205297052e-20
2.774572339e-20
6.485759884e-20
1.536152805e-19
3.668074381e-19
8.748833108e-19
2.061863796e-18
4.737946709e-18
1.049630292e-17
2.218510238e-17
4.460477852e-17
8.361876427e-73
6.281224524e-72
3.451592637e-71
1.691898479e-70
7.899889804e-70
3.602133632e-69
1.619251785e-68
7.197476916e-68
3.167076974e-67
1.379642505e-66
5.950597026e-66
2.540601153e-65
1.073734889e-64
4.491008968e-64
1.858967988e-63
7.613855129e-63
3.085619503e-62
1.237193011e-61
4.908019485e-61
1.92635111e-60
7.48111205e-60
2.874906447e-59
1.09340295e-58
4.116250445e-58
1.534241641e-57
5.663189394e-57
2.07080955e-56
7.50357178e-56
2.695278208e-55
9.600696107e-55
3.392593231e-54
1.189728276e-53
4.141970922e-53
1.43201023e-52
4.918008374e-52
1.678170003e-51
5.690685552e-51
1.917899277e-50
6.424616182e-50
2.139100313e-49
7.078815987e-49
2.328092429e-48
7.608560595e-48
2.4706457e-47
7.970094452e-47
2.553872413e-46
8.127524287e-46
2.568536564e-45
8.059971028e-45
2.511080312e-44
7.766663019e-44
2.384680347e-43
7.268260826e-43
2.198998426e-42
6.604028037e-42
1.968715059e-41
5.825741951e-41
1.711281814e-40
4.990034057e-40
1.444469692e-39
4.150959656e-39
1.184230849e-38
3.354168125e-38
9.432060077e-38
2.63338313e-37
7.299944263e-37
2.00925514e-36
5.491267297e-36
1.49019777e-35
4.015697569e-35
1.074573076e-34
2.855493114e-34
7.53544923e-34
1.974845149e-33
5.140037189e-33
1.328687002e-32
3.411276591e-32
8.698905371e-32
2.20334879e-31
5.543552339e-31
1.385464771e-30
3.439716394e-30
8.483765949e-30
2.078807141e-29
5.06083313e-29
1.224156693e-28
2.94229972e-28
7.02751849e-28
1.668075835e-27
3.935180374e-27
9.227591201e-27
2.150946869e-26
4.984654823e-26
1.148563811e-25
2.631753169e-25
5.997466773e-25
1.359546974e-24
3.066268635e-24
6.882054846e-24
1.53762752e-23
3.421175444e-23
7.584357384e-23
1.676388366e-22
3.697905202e-22
8.150720843e-22
1.79821001e-21
3.979406282e-21
8.858230256e-21
1.989596455e-20
4.524106926e-20
1.04399497e-19
2.447475524e-19
5.815296323e-19
1.392922278e-18
3.330164555e-18
7.854574578e-18
1.801296122e-17
3.967091029e-17
8.289617013e-17
1.636868697e-16
2.332990549e-72
1.717203109e-71
9.324744319e-71
4.548684341e-70
2.122924762e-69
9.697362081e-69
4.371201561e-68
1.949017811e-67
8.603717388e-67
3.760058743e-66
1.626970122e-65
6.968442343e-65
2.954343518e-64
1.239535609e-63
5.146626541e-63
2.114354032e-62
8.594569935e-62
3.456342587e-61
1.375222667e-60
5.413555167e-60
2.108573986e-59
8.12682395e-59
3.099944709e-58
1.170464874e-57
4.375658736e-57
1.620012578e-56
5.941876012e-56
2.15973256e-55
7.7823266e-55
2.781062127e-54
9.85988131e-54
3.469369445e-53
1.21199833e-52
4.204956994e-52
1.449273513e-51
4.963222304e-51
1.689176868e-50
5.713861258e-50
1.921097204e-49
6.419938626e-49
2.13231856e-48
7.038386367e-48
2.308568982e-47
7.523183847e-47
2.435494032e-46
7.831336969e-46
2.500856426e-45
7.930329252e-45
2.496871588e-44
7.804844866e-44
2.42194557e-43
7.460592535e-43
2.281263967e-42
6.924079714e-42
2.086074269e-41
6.238500992e-41
1.85190603e-40
5.457001864e-40
1.596232109e-39
4.635071044e-39
1.336126451e-38
3.823686107e-38
1.086358558e-37
3.064312146e-37
8.581713605e-37
2.386208129e-36
6.587912306e-36
1.805943908e-35
4.915746066e-35
1.328664182e-34
3.566101428e-34
9.504672602e-34
2.515696927e-33
6.612568599e-33
1.726180686e-32
4.475282252e-32
1.152357789e-31
2.94715202e-31
7.48657656e-31
1.889054628e-30
4.734810678e-30
1.178894868e-29
2.915956749e-29
7.165414393e-29
1.749358018e-28
4.243441239e-28
1.02279246e-27
2.449721901e-27
5.830947177e-27
1.379399516e-26
3.24345716e-26
7.581135721e-26
1.761620268e-25
4.069952795e-25
9.350110785e-25
2.136249641e-24
4.854678873e-24
1.097542941e-23
2.469054306e-23
5.528575141e-23
1.232617479e-22
2.737764575e-22
6.061835062e-22
1.339243807e-21
2.955947403e-21
6.529256522e-21
1.44646082e-20
3.223066172e-20
7.246651914e-20
1.649785575e-19
3.812831652e-19
8.955344604e-19
2.132420683e-18
5.118608166e-18
1.225525695e-17
2.890304235e-17
6.608799673e-17
1.445164534e-16
2.980110527e-16
5.764262249e-16
6.353619917e-72
4.576329989e-71
2.455496722e-70
1.192487012e-69
5.564911235e-69
2.547057902e-68
1.151331478e-67
5.149409046e-67
2.280332011e-66
9.997284885e-66
4.339405808e-65
1.864402349e-64
7.928699691e-64
3.336757187e-63
1.389623444e-62
5.725966711e-62
2.334416044e-61
9.415507917e-61
3.757188467e-60
1.48330146e-59
5.79412954e-59
2.239610538e-58
8.567626364e-58
3.244345048e-57
1.216423762e-56
4.516977175e-56
1.661728518e-55
6.058515574e-55
2.189933438e-54
7.850834272e-54
2.792480787e-53
9.858546048e-53
3.455708924e-52
1.203086435e-51
4.161115752e-51
1.430102484e-50
4.884693367e-50
1.658287787e-49
5.595658488e-49
1.876733345e-48
6.25585715e-48
2.07233448e-47
6.821300859e-47
2.230728838e-46
7.246604468e-46
2.338119914e-45
7.491764441e-45
2.383597234e-44
7.529517403e-44
2.361287881e-43
7.351041148e-43
2.271670685e-42
6.968263542e-42
2.121675516e-41
6.412195956e-41
1.923582163e-40
5.727923067e-40
1.693070417e-39
4.967696876e-39
1.446935935e-38
4.183793214e-38
1.2009655e-37
3.422496207e-37
9.683224252e-37
2.720030461e-36
7.586059386e-36
2.100676363e-35
5.775826668e-35
1.576859261e-34
4.274716381e-34
1.150719089e-33
3.076035208e-33
8.165559734e-33
2.152614928e-32
5.635675414e-32
1.465341257e-31
3.784071941e-31
9.705620843e-31
2.472562644e-30
6.256713788e-30
1.572666973e-29
3.926778056e-29
9.740120757e-29
2.400167346e-28
5.876123598e-28
1.429346588e-27
3.454690081e-27
8.297273838e-27
1.980382779e-26
4.697695749e-26
1.107591558e-25
2.595805147e-25
6.047881463e-25
1.400930085e-24
3.226698314e-24
7.390619593e-24
1.683616139e-23
3.815195857e-23
8.601813677e-23
1.930095924e-22
4.311552971e-22
9.593214339e-22
2.127397278e-21
4.706342e-21
1.03991133e-20
2.298950941e-20
5.096081211e-20
1.135991037e-19
2.554889588e-19
5.818312764e-19
1.345333292e-18
3.162285262e-18
7.537886957e-18
1.811322944e-17
4.338996955e-17
1.022334334e-16
2.328599506e-16
5.049986625e-16
1.025881405e-15
1.938705912e-15
1.682058279e-71
1.183947597e-70
6.277336499e-70
3.036363265e-69
1.417314865e-68
6.500963272e-68
2.946888796e-67
1.322048848e-66
5.872605512e-66
2.582619499e-65
1.124448967e-64
4.845865464e-64
2.066993117e-63
8.724807753e-63
3.644236923e-62
1.506001559e-61
6.157556259e-61
2.490682353e-60
9.967182112e-60
3.946104352e-59
1.545799076e-58
5.991888974e-58
2.298694486e-57
8.729416671e-57
3.282401334e-56
1.222416423e-55
4.510399895e-55
1.649407508e-54
5.98032739e-54
2.15065434e-53
7.674236195e-53
2.71817774e-52
9.559835752e-52
3.339525822e-51
1.159031753e-50
3.997319357e-50
1.370151428e-49
4.667977426e-49
1.580738523e-48
5.320452302e-48
1.779763634e-47
5.916342126e-47
1.954176648e-46
6.412534069e-46
2.090189021e-45
6.766549776e-45
2.175283014e-44
6.943495927e-44
2.200441645e-43
6.922680883e-43
2.161940731e-42
6.701907304e-42
2.062176652e-41
6.298253067e-41
1.909328342e-40
5.745279517e-40
1.716006436e-39
5.087605369e-39
1.497289946e-38
4.374299823e-38
1.268627071e-37
3.652539384e-37
1.044008323e-36
2.962602895e-36
8.346711188e-36
2.334756323e-35
6.484307021e-35
1.788104733e-34
4.895998944e-34
1.331129857e-33
3.593704095e-33
9.6342814e-33
2.564863092e-32
6.780941282e-32
1.780369915e-31
4.642361287e-31
1.202238589e-30
3.092295284e-30
7.89997705e-30
2.004658895e-29
5.052909603e-29
1.2651636e-28
3.14684502e-28
7.77586027e-28
1.908926006e-27
4.656100716e-27
1.128433277e-26
2.717560538e-26
6.503758385e-26
1.546909498e-25
3.656925067e-25
8.593184533e-25
2.007321722e-24
4.661693486e-24
1.076405945e-23
2.471495938e-23
5.643487678e-23
1.281748594e-22
2.896043797e-22
6.511190468e-22
1.45716433e-21
3.247476834e-21
7.211715006e-21
1.597224213e-20
3.532168405e-20
7.812523756e-20
1.732060729e-19
3.860261313e-19
8.677810279e-19
1.974971568e-18
4.563871873e-18
1.072324104e-17
2.555748165e-17
6.141131965e-17
1.470452395e-16
3.458424634e-16
7.841181107e-16
1.684986385e-15
3.367809811e-15
6.206656728e-15
4.309703901e-71
2.960301447e-70
1.551204632e-69
7.4771227e-69
3.492216891e-68
1.605454735e-67
7.298045325e-67
3.283925109e-66
1.46313734e-65
6.453943148e-65
2.818373548e-64
1.218194739e-63
5.211388609e-63
2.206122411e-62
9.241094903e-62
3.829794883e-61
1.570283893e-60
6.36942015e-60
2.555973169e-59
1.014730557e-58
3.985931184e-58
1.549304232e-57
5.960104042e-57
2.269688085e-56
8.558397713e-56
3.196363899e-55
1.18279007e-54
4.33809868e-54
1.577615905e-53
5.690882822e-53
2.037068431e-52
7.238331208e-52
2.554047801e-51
8.951726928e-51
3.117327406e-50
1.078793498e-49
3.710500869e-49
1.2685103e-48
4.310502004e-48
1.455845127e-47
4.886742309e-47
1.630004701e-46
5.402104247e-46
1.778588962e-45
5.81648168e-45