/*--------------------------------*- C++ -*----------------------------------*\
  =========                 |
  \\      /  F ield         | OpenFOAM: The Open Source CFD Toolbox
   \\    /   O peration     | Website:  https://openfoam.org
    \\  /    A nd           | Version:  7
     \\/     M anipulation  |
\*---------------------------------------------------------------------------*/
FoamFile
{
    version     2.0;
    format      ascii;
    class       volScalarField;
    location    "0.361";
    object      Y_CH4;
}
// * * * * * * * * * * * * * * * * * * * * * * * * * * * * * * * * * * * * * //

dimensions      [0 0 0 0 0 0 0];

internalField   nonuniform List<scalar> 
35870
(
5.907028762e-74
5.129882085e-73
3.135404226e-72
1.633392472e-71
7.795913363e-71
3.536325388e-70
1.55577142e-69
6.710627729e-69
2.8540594e-68
1.200018901e-67
4.994314742e-67
2.058343282e-66
8.402367856e-66
3.397280748e-65
1.360557129e-64
5.396888807e-64
2.120411196e-63
8.251792282e-63
3.180928524e-62
1.214685758e-61
4.595454017e-61
1.72267323e-60
6.399757634e-60
2.356639191e-59
8.603799723e-59
3.11500087e-58
1.118687347e-57
3.986140033e-57
1.409614707e-56
4.94827869e-56
1.724671502e-55
5.969442129e-55
2.052089515e-54
7.007023793e-54
2.376650852e-53
8.007384711e-53
2.679727011e-52
8.906956117e-52
2.940078006e-51
9.636547331e-51
3.135841068e-50
1.012957855e-49
3.247653507e-49
1.033306247e-48
3.262240404e-48
1.021843915e-47
3.175395783e-47
9.788768821e-47
2.993344303e-46
9.079755027e-46
2.731991821e-45
8.154155019e-45
2.414271485e-44
7.091200967e-44
2.066349302e-43
5.974001752e-43
1.713700044e-42
4.878026835e-42
1.377928349e-41
3.862919757e-41
1.074842065e-40
2.968561974e-40
8.138634652e-40
2.215088072e-39
5.985395545e-39
1.605771822e-38
4.277488445e-38
1.13143886e-37
2.971885932e-37
7.751969597e-37
2.008119783e-36
5.166333227e-36
1.320100978e-35
3.35026994e-35
8.445314973e-35
2.114611249e-34
5.259435907e-34
1.299443659e-33
3.189348809e-33
7.776611225e-33
1.883819392e-32
4.533832008e-32
1.084142073e-31
2.575844956e-31
6.081144022e-31
1.426604616e-30
3.325808428e-30
7.705320976e-30
1.774235869e-29
4.060592593e-29
9.237594728e-29
2.089095269e-28
4.697111544e-28
1.05008978e-27
2.334539725e-27
5.162026396e-27
1.135421007e-26
2.484830204e-26
5.411734718e-26
1.173247039e-25
2.532702949e-25
5.445936141e-25
1.166881576e-24
2.492595617e-24
5.311039238e-24
1.129495325e-23
2.399220698e-23
5.094304705e-23
1.082146103e-22
2.301657243e-22
4.905089572e-22
1.047856632e-21
2.24372775e-21
4.812212959e-21
1.032129859e-20
2.208651999e-20
4.701800176e-20
9.931210567e-20
2.07947633e-19
4.335209734e-19
1.015338753e-73
8.7628133e-73
5.325513005e-72
2.76307763e-71
1.315987244e-70
5.967265655e-70
2.627738894e-69
1.135481643e-68
4.840345153e-68
2.040346194e-67
8.514247491e-67
3.518516679e-66
1.440195707e-65
5.838832217e-65
2.34468045e-64
9.325608115e-64
3.673821595e-63
1.433531447e-62
5.540818695e-62
2.12151319e-61
8.0477838e-61
3.024980742e-60
1.126845624e-59
4.160891096e-59
1.523316752e-58
5.530706572e-58
1.991918918e-57
7.118270297e-57
2.524645403e-56
8.888945093e-56
3.107529849e-55
1.078871242e-54
3.720233724e-54
1.274244494e-53
4.335438348e-53
1.465229474e-52
4.918669868e-52
1.639908482e-51
5.429629112e-51
1.785003103e-50
5.825874587e-50
1.887427293e-49
6.068789857e-49
1.93640855e-48
6.130588308e-48
1.925630207e-47
6.000310299e-47
1.85472062e-46
5.686833906e-46
1.729586203e-45
5.217882041e-45
1.561474575e-44
4.635313024e-44
1.365045448e-43
3.988081248e-43
1.156000894e-42
3.324762674e-42
9.488643322e-42
2.687337236e-41
7.553505729e-41
2.107253037e-40
5.835244394e-40
1.604009403e-39
4.377135567e-39
1.185867923e-38
3.189863765e-38
8.519652253e-38
2.259478533e-37
5.950483574e-37
1.556229334e-36
4.041946306e-36
1.042606216e-35
2.671033009e-35
6.796464582e-35
1.717698675e-34
4.312072777e-34
1.075265132e-33
2.663490331e-33
6.554046956e-33
1.602170306e-32
3.891034395e-32
9.388483989e-32
2.250698488e-31
5.361038883e-31
1.268849263e-30
2.984157215e-30
6.974403331e-30
1.61991221e-29
3.739410178e-29
8.579726059e-29
1.956761059e-28
4.436458193e-28
1.000033691e-27
2.241427196e-27
4.996035257e-27
1.107606575e-26
2.442766963e-26
5.360499033e-26
1.17073045e-25
2.54540645e-25
5.511137476e-25
1.188695635e-24
2.555212923e-24
5.47683173e-24
1.171175608e-23
2.50034051e-23
5.333108927e-23
1.137466847e-22
2.427989909e-22
5.191520704e-22
1.112703045e-21
2.391631444e-21
5.154131693e-21
1.11273001e-20
2.402031283e-20
5.1709305e-20
1.106401576e-19
2.345779223e-19
4.92158893e-19
1.025789733e-18
2.451485738e-73
2.097116006e-72
1.264527443e-71
6.524936038e-71
3.099129119e-70
1.404745617e-69
6.19441475e-69
2.683275496e-68
1.147355417e-67
4.852754663e-67
2.032139972e-66
8.42763365e-66
3.461873574e-65
1.408483594e-64
5.675972965e-64
2.265453552e-63
8.955966252e-63
3.506805896e-62
1.36015136e-61
5.22597094e-61
1.989343175e-60
7.503675392e-60
2.805075673e-59
1.039460743e-58
3.819183414e-58
1.39167605e-57
5.030692519e-57
1.804475132e-56
6.4242048e-56
2.270557096e-55
7.968553252e-55
2.777351351e-54
9.614784338e-54
3.306253157e-53
1.129356712e-52
3.831896506e-52
1.291385805e-51
4.322287181e-51
1.436585575e-50
4.740740562e-50
1.553068966e-49
5.050071744e-49
1.629679506e-48
5.218496966e-48
1.657966216e-47
5.225764973e-47
1.633934237e-46
5.067641583e-46
1.559011992e-45
4.757295295e-45
1.439928298e-44
4.323168446e-44
1.287540362e-43
3.803987717e-43
1.114970502e-42
3.242375808e-42
9.355586654e-42
2.678673638e-41
7.611035415e-41
2.146232931e-40
6.006929893e-40
1.668795926e-39
4.602139971e-39
1.259945176e-38
3.424571289e-38
9.241643077e-38
2.476306614e-37
6.588612681e-37
1.740757802e-36
4.567268868e-36
1.190053432e-35
3.079532309e-35
7.914572339e-35
2.02027221e-34
5.122088693e-34
1.289893781e-33
3.226603189e-33
8.017475329e-33
1.979006173e-32
4.852797642e-32
1.182195082e-31
2.861243191e-31
6.88028815e-31
1.643854172e-30
3.902516789e-30
9.206037414e-30
2.158096638e-29
5.027654025e-29
1.164086762e-28
2.678942964e-28
6.128251047e-28
1.393626875e-27
3.150944867e-27
7.083926281e-27
1.583827876e-26
3.522203099e-26
7.792452552e-26
1.715466335e-25
3.758764751e-25
8.199544535e-25
1.78138575e-24
3.855859035e-24
8.318987809e-24
1.789944177e-23
3.843140358e-23
8.239980302e-23
1.765619394e-22
3.784420454e-22
8.121274145e-22
1.746570879e-21
3.766888801e-21
8.15082109e-21
1.768886008e-20
3.846134154e-20
8.3599733e-20
1.81099968e-19
3.894886404e-19
8.287021392e-19
1.741035676e-18
3.623916453e-18
6.674129663e-73
5.653301103e-72
3.38027785e-71
1.734367258e-70
8.215605633e-70
3.723106858e-69
1.644282007e-68
7.141031597e-68
3.063098809e-67
1.299957253e-66
5.462885919e-66
2.273591292e-65
9.372562576e-65
3.826753385e-64
1.547549751e-63
6.198339045e-63
2.458914558e-62
9.661562735e-62
3.760333895e-61
1.449803429e-60
5.538081439e-60
2.096222694e-59
7.863806446e-59
2.924383955e-58
1.078331112e-57
3.943609863e-57
1.430800475e-56
5.151328355e-56
1.840884511e-55
6.531281092e-55
2.30102854e-54
8.051259324e-54
2.798161098e-53
9.659927345e-53
3.312628387e-52
1.128373556e-51
3.817521633e-51
1.282654659e-50
4.279361002e-50
1.417498904e-49
4.660928748e-49
1.521106295e-48
4.926286217e-48
1.583048072e-47
5.046993552e-47
1.596225688e-46
5.007805103e-46
1.558369704e-45
4.8100728e-45
1.472610883e-44
4.471826369e-44
1.34696087e-43
4.024546444e-43
1.192874232e-42
3.507648019e-42
1.023320865e-41
2.962204394e-41
8.508629561e-41
2.425381524e-40
6.861365378e-40
1.926568516e-39
5.369501399e-39
1.485558202e-38
4.080190497e-38
1.112585111e-37
3.012126241e-37
8.096986918e-37
2.161252599e-36
5.728479151e-36
1.507798685e-35
3.941258389e-35
1.023128823e-34
2.637820269e-34
6.75452212e-34
1.717882294e-33
4.339665513e-33
1.088925621e-32
2.714157252e-32
6.720224728e-32
1.65296151e-31
4.039132608e-31
9.805654968e-31
2.365080463e-30
5.667804089e-30
1.349595693e-29
3.193261729e-29
7.508126743e-29
1.754372119e-28
4.074129479e-28
9.403826226e-28
2.157590521e-27
4.921204955e-27
1.11599163e-26
2.5164833e-26
5.64332e-26
1.258801219e-25
2.793477043e-25
6.168747975e-25
1.355886175e-24
2.967260633e-24
6.467578816e-24
1.404626038e-23
3.040968756e-23
6.566618341e-23
1.415209189e-22
3.046376977e-22
6.555202608e-22
1.411416707e-21
3.043692469e-21
6.58055954e-21
1.427379607e-20
3.107513755e-20
6.787074837e-20
1.485294291e-19
3.248441097e-19
7.075762748e-19
1.528283371e-18
3.259976409e-18
6.850724746e-18
1.422274804e-17
1.911184231e-72
1.601343639e-71
9.489902688e-71
4.841147239e-70
2.287375265e-69
1.03656406e-68
4.58569913e-68
1.996882995e-67
8.592852352e-67
3.659182048e-66
1.543107117e-65
6.444828913e-65
2.666136337e-64
1.092370883e-63
4.432959701e-63
1.781659224e-62
7.092317809e-62
2.796288839e-61
1.092069727e-60
4.224959697e-60
1.619449753e-59
6.151021972e-59
2.315560752e-58
8.641421062e-58
3.197776599e-57
1.173692812e-56
4.273912963e-56
1.544448769e-55
5.540004183e-55
1.973016507e-54
6.977827948e-54
2.450986879e-53
8.551404907e-53
2.963667531e-52
1.020275105e-51
3.488823903e-51
1.184887418e-50
3.996301366e-50
1.338321446e-49
4.44953659e-49
1.468422597e-48
4.809500867e-48
1.563138527e-47
5.040640425e-47
1.612560681e-46
5.117396903e-46
1.610852219e-45
5.029404347e-45
1.557479113e-44
4.783791129e-44
1.45738439e-43
4.403951812e-43
1.320073753e-42
3.92524215e-42
1.157914679e-41
3.388912969e-41
9.841283115e-41
2.835861837e-40
8.109521091e-40
2.301528813e-39
6.483089169e-39
1.812691265e-38
5.031206988e-38
1.386294079e-37
3.792274971e-37
1.029982897e-36
2.777592642e-36
7.437659847e-36
1.977664464e-35
5.221982505e-35
1.369309303e-34
3.565882124e-34
9.222463776e-34
2.368952194e-33
6.04379334e-33
1.531515802e-32
3.854844717e-32
9.637881109e-32
2.393662183e-31
5.905665672e-31
1.447490376e-30
3.524682585e-30
8.527066213e-30
2.04962072e-29
4.895107468e-29
1.161684458e-28
2.739529951e-28
6.420268172e-28
1.495375071e-27
3.461795478e-27
7.966103102e-27
1.822334513e-26
4.144748845e-26
9.373769479e-26
2.108344661e-25
4.716896956e-25
1.049890667e-24
2.325442624e-24
5.126888535e-24
1.125445785e-23
2.460758359e-23
5.361333275e-23
1.164506756e-22
2.523096864e-22
5.456700718e-22
1.178918838e-21
2.546639508e-21
5.505974181e-21
1.192649373e-20
2.591012855e-20
5.649430085e-20
1.236791675e-19
2.716971213e-19
5.980695936e-19
1.315238927e-18
2.878509207e-18
6.238633523e-18
1.332887935e-17
2.798642968e-17
5.78779127e-17
5.605206865e-72
4.640703044e-71
2.724367397e-70
1.381704993e-69
6.512690297e-69
2.951908824e-68
1.308348984e-67
5.713169051e-67
2.466413276e-66
1.053890704e-65
4.459873585e-65
1.869197828e-64
7.759643107e-64
3.190328238e-63
1.29914797e-62
5.239382531e-62
2.092810296e-61
8.279516985e-61
3.244550581e-60
1.259531039e-59
4.84441956e-59
1.846363999e-58
6.974843226e-58
2.612078783e-57
9.700416921e-57
3.573202858e-56
1.305905255e-55
4.736569481e-55
1.705400153e-54
6.096657653e-54
2.164425539e-53
7.631972662e-53
2.673094538e-52
9.300140054e-52
3.214085042e-51
1.103292605e-50
3.761379792e-50
1.273413459e-49
4.280477972e-49
1.428382096e-48
4.73101534e-48
1.555078848e-47
5.071948691e-47
1.641213176e-46
5.268364281e-46
1.677528178e-45
5.298100694e-45
1.659625107e-44
5.156229529e-44
1.588871302e-43
4.856118588e-43
1.472144878e-42
4.426851597e-42
1.32053362e-41
3.907909854e-41
1.14739531e-40
3.342639094e-40
9.662930003e-40
2.77208221e-39
7.892518328e-39
2.230336822e-38
6.2560794e-38
1.741970438e-37
4.815194626e-37
1.321439565e-36
3.600518102e-36
9.740671761e-36
2.616611856e-35
6.979670775e-35
1.848814161e-34
4.863295475e-34
1.270464932e-33
3.296129755e-33
8.493175169e-33
2.173574152e-32
5.524995358e-32
1.394945877e-31
3.498376417e-31
8.715191959e-31
2.156783247e-30
5.302383697e-30
1.295053034e-29
3.142487732e-29
7.576146264e-29
1.814816259e-28
4.319655707e-28
1.021698633e-27
2.401493479e-27
5.609912028e-27
1.302512071e-26
3.00606357e-26
6.896844215e-26
1.573220567e-25
3.568408864e-25
8.049550165e-25
1.806166359e-24
4.031989844e-24
8.95692456e-24
1.980570755e-23
4.360655748e-23
9.563061684e-23
2.089854977e-22
4.553238466e-22
9.896373755e-22
2.147210355e-21
4.654634552e-21
1.00901466e-20
2.189721302e-20
4.762203977e-20
1.039077527e-19
2.276211344e-19
5.008166021e-19
1.105928712e-18
2.447129911e-18
5.407611449e-18
1.18825955e-17
2.582012128e-17
5.519961864e-17
1.156711642e-16
2.379715627e-16
1.661516766e-71
1.357772052e-70
7.892206863e-70
3.979183367e-69
1.871433666e-68
8.485892092e-68
3.768785882e-67
1.650451032e-66
7.14845843e-66
3.064985693e-65
1.301565514e-64
5.474052849e-64
2.280354004e-63
9.407905999e-63
3.844208062e-62
1.555645241e-61
6.235027247e-61
2.475068691e-60
9.732197517e-60
3.790888618e-59
1.463039746e-58
5.595288608e-58
2.121013761e-57
7.971030167e-57
2.97068468e-56
1.098201397e-55
4.028247487e-55
1.466459889e-54
5.299751211e-54
1.90178971e-53
6.777515084e-53
2.399015177e-52
8.435005149e-52
2.946024305e-51
1.022058452e-50
3.521851387e-50
1.205244993e-49
4.095692101e-49
1.381843327e-48
4.628033121e-48
1.538394631e-47
5.074610734e-47
1.660880206e-46
5.392858513e-46
1.736999154e-45
5.549382839e-45
1.758448725e-44
5.526371952e-44
1.722548468e-43
5.325099782e-43
1.632755092e-42
4.965579166e-42
1.497954047e-41
4.482653547e-41
1.330796425e-40
3.919779397e-40
1.145566326e-39
3.322177968e-39
9.561031503e-39
2.73086388e-38
7.741796063e-38
2.178517122e-37
6.085371732e-37
1.687514005e-36
4.645869738e-36
1.269899227e-35
3.446477381e-35
9.287636664e-35
2.485288492e-34
6.604001461e-34
1.742658269e-33
4.566749758e-33
1.188520807e-32
3.072028992e-32
7.886368355e-32
2.010834887e-31
5.0925843e-31
1.281085951e-30
3.201209987e-30
7.946272682e-30
1.959485377e-29
4.800278999e-29
1.168301087e-28
2.82504987e-28
6.787369327e-28
1.620330679e-27
3.843774783e-27
9.061337476e-27
2.122942582e-26
4.943461549e-26
1.144224136e-25
2.632834932e-25
6.023102072e-25
1.370124468e-24
3.099627131e-24
6.975024933e-24
1.561548132e-23
3.478889588e-23
7.714642882e-23
1.703411772e-22
3.746336748e-22
8.210512737e-22
1.794008534e-21
3.910594272e-21
8.509903292e-21
1.850350834e-20
4.023784056e-20
8.761306215e-20
1.912162637e-19
4.188154871e-19
9.212392308e-19
2.035877408e-18
4.516313162e-18
1.003894344e-17
2.227531311e-17
4.910659178e-17
1.068893328e-16
2.284292271e-16
4.771510784e-16
9.751543993e-16
4.937181858e-71
3.977753879e-70
2.288220314e-69
1.146949457e-68
5.383379909e-68
2.442643419e-67
1.087218208e-66
4.775315857e-66
2.07513004e-65
8.927868391e-65
3.804427602e-64
1.605586369e-63
6.711562386e-63
2.778442456e-62
1.139189262e-61
4.625644062e-61
1.860238889e-60
7.409395079e-60
2.923293103e-59
1.142538467e-58
4.424470455e-58
1.697900978e-57
6.458500454e-57
2.435661447e-56
9.109458093e-56
3.37965249e-55
1.24417755e-54
4.54604936e-54
1.649065616e-53
5.93993203e-53
2.124911501e-52
7.550312675e-52
2.664920472e-51
9.343336276e-51
3.253888905e-50
1.125508306e-49
3.866238796e-49
1.318734842e-48
4.465646135e-48
1.501045628e-47
5.007407611e-47
1.65756849e-46
5.443863735e-46
1.773642775e-45
5.731981888e-45
1.837341965e-44
5.841165126e-44
1.841710082e-43
5.759081001e-43
1.786082868e-42
5.493898977e-42
1.676142078e-41
5.072451143e-41
1.52276031e-40
4.535076457e-40
1.340021183e-39
3.928695053e-39
1.142958125e-38
3.299840181e-38
9.4551891e-38
2.689025374e-37
7.59097807e-37
2.12719604e-36
5.917672291e-36
1.634378054e-35
4.481618938e-35
1.220165825e-34
3.298552402e-34
8.854543485e-34
2.360280911e-33
6.24786299e-33
1.642420833e-32
4.287824053e-32
1.111739896e-31
2.862841456e-31
7.322064767e-31
1.860059383e-30
4.693456419e-30
1.176384292e-29
2.928958457e-29
7.244368419e-29
1.78003191e-28
4.345232369e-28
1.053841845e-27
2.539429621e-27
6.080203614e-27
1.4465942e-26
3.420189091e-26
8.03637149e-26
1.876773883e-25
4.356585013e-25
1.005329288e-24
2.306480703e-24
5.261741564e-24
1.19375e-23
2.69387806e-23
6.047956277e-23
1.351159863e-22
3.004590578e-22
6.652457523e-22
1.467071606e-21
3.223935999e-21
7.063232799e-21
1.543762005e-20
3.368393739e-20
7.343899438e-20
1.60143466e-19
3.496992143e-19
7.65545564e-19
1.682231245e-18
3.713275193e-18
8.23696346e-18
1.834366826e-17
4.093122729e-17
9.112808139e-17
2.013867068e-16
4.387129861e-16
9.362350955e-16
1.946952312e-15
3.946682913e-15
1.461974569e-70
1.159920998e-69
6.600741248e-69
3.28942645e-68
1.541243361e-67
6.999427977e-67
3.12274803e-66
1.375742565e-65
5.998203202e-65
2.589442794e-64
1.107241139e-63
4.68896251e-63
1.966758768e-62
8.169659993e-62
3.360987951e-61
1.369318608e-60
5.525334143e-60
2.208143261e-59
8.741234326e-59
3.427917158e-58
1.331948449e-57
5.128793094e-57
1.957606499e-56
7.408291029e-56
2.780485794e-55
1.035256753e-54
3.824973109e-54
1.40272206e-53
5.107250893e-53
1.846545146e-52
6.630747309e-52
2.365042567e-51
8.379438339e-51
2.949089303e-50
1.030949581e-49
3.57948492e-49
1.234189283e-48
4.225250033e-48
1.436015648e-47
4.844234695e-47
1.621722547e-46
5.386957293e-46
1.775271774e-45
5.803472588e-45
1.881790949e-44
6.051794332e-44
1.930218455e-43
6.105605993e-43
1.915363791e-42
5.959126001e-42
1.838818528e-41
5.627849046e-41
1.708522197e-40
5.145225995e-40
1.53719051e-39
4.556440176e-39
1.340091599e-38
3.911020565e-38
1.132733592e-37
3.255978208e-37
9.289311826e-37
2.630657185e-36
7.395233124e-36
2.063823036e-35
5.718076568e-35
1.572918923e-34
4.295974357e-34
1.165022976e-33
3.137197793e-33
8.388801751e-33
2.227530978e-32
5.873918509e-32
1.538248882e-31
4.000679991e-31
1.033388366e-30
2.65112428e-30
6.755354445e-30
1.709753396e-29
4.298370344e-29
1.073435178e-28
2.662963021e-28
6.562788253e-28
1.606806765e-27
3.908500784e-27
9.446027279e-27
2.268316024e-26
5.41251148e-26
1.283403453e-25
3.024324831e-25
7.083209347e-25
1.64895303e-24
3.816000035e-24
8.779733308e-24
2.008561556e-23
4.569668503e-23
1.034081704e-22
2.327979801e-22
5.215027507e-22
1.16278035e-21
2.581294725e-21
5.707268275e-21
1.257365827e-20
2.761553707e-20
6.050388183e-20
1.323308297e-19
2.89195229e-19
6.321243414e-19
1.383688686e-18
3.036729669e-18
6.690821512e-18
1.481114628e-17
3.295514558e-17
7.362182157e-17
1.647805951e-16
3.678056435e-16
8.141302873e-16
1.773324591e-15
3.774899075e-15
7.804720909e-15
1.566699605e-14
4.293433322e-70
3.35044064e-69
1.885417417e-68
9.342708571e-68
4.371073179e-67
1.987333328e-66
8.888368146e-66
3.927906674e-65
1.718255714e-64
7.442998169e-64
3.193488276e-63
1.3569887e-62
5.711105063e-62
2.380311888e-61
9.825416104e-61
4.016391781e-60
1.626051039e-59
6.519958778e-59
2.589607678e-58
1.018917703e-57
3.972389472e-57
1.534779587e-56
5.878104652e-56
2.232174423e-55
8.407151099e-55
3.141343557e-54
1.164815109e-53
4.28728882e-53
1.56675335e-52
5.68581144e-52
2.049401987e-51
7.337430434e-51
2.609536526e-50
9.218865327e-50
3.234896615e-49
1.12736466e-48
3.901485074e-48
1.340556002e-47
4.572502062e-47
1.547955811e-46
5.200255545e-46
1.733336648e-45
5.731564141e-45
1.879942141e-44
6.115859722e-44
1.973256315e-43
6.314008766e-43
2.003619881e-42
6.305456698e-42
1.967975201e-41
6.091759595e-41
1.870294286e-40
5.695738277e-40
1.720660597e-39
5.156798984e-39
1.533348841e-38
4.523910522e-38
1.324449612e-37
3.848048035e-37
1.10959086e-36
3.175663902e-36
9.02163574e-36
2.544150432e-35
7.122500684e-35
1.97960121e-34
5.462603982e-34
1.496642314e-33
4.071463522e-33
1.099800554e-32
2.950011879e-32
7.857689363e-32
2.078459073e-31
5.459810898e-31
1.424351131e-30
3.690403078e-30
9.496465e-30
2.427148254e-29
6.161585818e-29
1.553703987e-28
3.89170314e-28
9.68327861e-28
2.393498104e-27
5.877461159e-27
1.433876535e-26
3.475523367e-26
8.370242728e-26
2.003045478e-25
4.763285787e-25
1.125685918e-24
2.643978611e-24
6.172606468e-24
1.432497526e-23
3.305094687e-23
7.582200493e-23
1.729780686e-22
3.925036036e-22
8.860002076e-22
1.990017147e-21
4.44856094e-21
9.900402257e-21
2.1943444e-20
4.845776776e-20
1.066699389e-19
2.342172428e-19
5.133405713e-19
1.12411623e-18
2.461919118e-18
5.399473037e-18
1.187324578e-17
2.621358086e-17
5.81523987e-17
1.296863408e-16
2.903965454e-16
6.514186534e-16
1.456518859e-15
3.226275696e-15
7.019546172e-15
1.4888053e-14
3.05593616e-14
6.063940712e-14
1.245215836e-69
9.545837896e-69
5.31034317e-68
2.617040921e-67
1.222998819e-66
5.568052231e-66
2.496797731e-65
1.10682329e-64
4.857846251e-64
2.111383069e-63
9.089704578e-63
3.87543393e-62
1.63650109e-61
6.84343234e-61
2.834184955e-60
1.16237078e-59
4.721400396e-59
1.89936436e-58
7.56878491e-58
2.987891554e-57
1.168744435e-56
4.530720795e-56
1.741113991e-55
6.634439668e-55
2.507444397e-54
9.402114399e-54
3.498779976e-53
1.292447534e-52
4.740461241e-52
1.726705451e-51
6.246991603e-51
2.244982305e-50
8.014186699e-50
2.841824337e-49
1.000910497e-48
3.501071553e-48
1.216048828e-47
4.193437725e-47
1.435426555e-46
4.876452444e-46
1.643860197e-45
5.497875018e-45
1.824043293e-44
6.002560756e-44
1.959123651e-43
6.341391653e-43
2.035588509e-42
6.479973297e-42
2.045686954e-41
6.404729562e-41
1.988740882e-40
6.124872415e-40
1.871059327e-39
5.670000169e-39
1.704586781e-38
5.084312502e-38
1.5047323e-37
4.419125669e-37
1.287948991e-36
3.72545757e-36
1.06957374e-35
3.048044324e-35
8.622601988e-35
2.421512451e-34
6.751325178e-34
1.868813485e-33
5.136134704e-33
1.401579535e-32
3.797747949e-32
1.021825549e-31
2.730134807e-31
7.243728346e-31
1.908643127e-30
4.994425398e-30
1.29795131e-29
3.350097519e-29
8.588105487e-29
2.186723151e-28
5.530499557e-28
1.389391257e-27
3.467289202e-27
8.59562655e-27
2.116923006e-26
5.17954846e-26
1.259096959e-25
3.041093313e-25
7.298423943e-25
1.74054486e-24
4.125054219e-24
9.716220799e-24
2.274718479e-23
5.293760006e-23
1.224774018e-22
2.817458016e-22
6.445096166e-22
1.466361062e-21
3.318707622e-21
7.473156871e-21
1.674742939e-20
3.736165058e-20
8.300042321e-20
1.836930552e-19
4.052023659e-19
8.914389598e-19
1.957320326e-18
4.29330848e-18
9.417283936e-18
2.068380146e-17
4.554569535e-17
1.006923359e-16
2.23687524e-16
4.995737997e-16
1.120286616e-15
2.51636243e-15
5.630835775e-15
1.246967947e-14
2.707198844e-14
5.713840395e-14
1.16254555e-13
2.275933654e-13
3.552624444e-69
2.672014852e-68
1.469065739e-67
7.202206403e-67
3.363000669e-66
1.533549765e-65
6.895246469e-65
3.066266249e-64
1.350220227e-63
5.888097731e-63
2.543333437e-62
1.087962062e-61
4.60936603e-61
1.933851455e-60
8.035160618e-60
3.306156729e-59
1.347282759e-58
5.437571342e-58
2.1738716e-57
8.609723335e-57
3.378853942e-56
1.314180159e-55
5.067198713e-55
1.937386212e-54
7.347417398e-54
2.764660431e-53
1.032446198e-52
3.827532854e-52
1.408965663e-51
5.150948153e-51
1.870424134e-50
6.746655591e-50
2.417366116e-49
8.603657484e-49
3.041406816e-48
1.067725425e-47
3.721955477e-47
1.288045869e-46
4.424464231e-46
1.508269744e-45
5.101665714e-45
1.711952187e-44
5.698499905e-44
1.881358022e-43
6.160119908e-43
2.000275576e-42
6.441113359e-42
2.056837888e-41
6.513499426e-41
2.04559137e-40
6.371409821e-40
1.968301338e-39
6.03140596e-39
1.833372957e-38
5.528720716e-38
1.654158368e-37
4.91072009e-37
1.44665565e-36
4.229333956e-36
1.227153023e-35
3.534080478e-35
1.010261606e-34
2.866800154e-34
8.075906583e-34
2.258590254e-33
6.271276356e-33
1.728880877e-32
4.732402781e-32
1.286238564e-31
3.471357554e-31
9.303135614e-31
2.475855636e-30
6.543360812e-30
1.717392644e-29
4.476569081e-29
1.158889449e-28
2.979712816e-28
7.609533814e-28
1.93023573e-27
4.863470932e-27
1.217255356e-26
3.026447472e-26
7.475129701e-26
1.834246418e-25
4.471683325e-25
1.083132486e-24
2.606841735e-24
6.234449613e-24
1.481709836e-23
3.499808212e-23
8.216368318e-23
1.917399537e-22
4.44825373e-22
1.026036744e-21
2.35337093e-21
5.368303035e-21
1.218078246e-20
2.749726449e-20
6.176972276e-20
1.38118244e-19
3.075041129e-19
6.819438761e-19
1.507112288e-18
3.321294641e-18
7.303638395e-18
1.604151876e-17
3.522656489e-17
7.744341998e-17
1.706637046e-16
3.775519344e-16
8.392216474e-16
1.875323424e-15
4.207488261e-15
9.45392968e-15
2.115063393e-14
4.677996471e-14
1.0122733e-13
2.123310783e-13
4.274942038e-13
8.239178854e-13
9.932119591e-69
7.319545445e-68
3.976542856e-67
1.940034603e-66
9.054592094e-66
4.136428826e-65
1.86501605e-64
8.319729885e-64
3.675511521e-63
1.608106961e-62
6.968915765e-62
2.990834539e-61
1.271239609e-60
5.350700583e-60
2.230366458e-59
9.206516447e-59
3.763723735e-58
1.523882748e-57
6.111820499e-57
2.428412404e-56
9.561111291e-56
3.73089043e-55
1.443310509e-54
5.536825229e-54
2.106940769e-53
7.955250916e-53
2.981228853e-52
1.109131146e-51
4.097494222e-51
1.503396762e-50
5.479048826e-50
1.983523821e-49
7.133046743e-49
2.547968734e-48
9.039689289e-48
3.184871538e-47
1.114137224e-46
3.86912963e-46
1.333628176e-45
4.561653111e-45
1.548109456e-44
5.212018327e-44
1.740520845e-43
5.764692683e-43
1.893493814e-42
6.167665399e-42
1.992218e-41
6.381341074e-41
2.027008091e-40
6.385345822e-40
1.994906329e-39
6.181565395e-39
1.899962638e-38
5.792920771e-38
1.752237644e-37
5.258583287e-37
1.56589295e-36
4.627102645e-36
1.356890045e-35
3.949129371e-35
1.140800731e-34
3.271132198e-34
9.310909397e-34
2.630966333e-33
7.380554984e-33
2.055572046e-32
5.684131143e-32
1.560628496e-31
4.254556556e-31
1.151709219e-30
3.095843997e-30
8.263738236e-30
2.190527826e-29
5.76645936e-29
1.507549784e-28
3.914263727e-28
1.009390277e-27
2.585319595e-27
6.577070865e-27
1.661990831e-26
4.171750707e-26
1.040203687e-25
2.576598652e-25
6.340487469e-25
1.550125937e-24
3.765324697e-24
9.087704797e-24
2.179464991e-23
5.194219865e-23
1.230266802e-22
2.896172306e-22
6.776986201e-22
1.576453047e-21
3.645919331e-21
8.384337776e-21
1.917460864e-20
4.361613933e-20
9.869807441e-20
2.222282594e-19
4.979978488e-19
1.111014136e-18
2.46852918e-18
5.464812354e-18
1.206103015e-17
2.655595539e-17
5.838500388e-17
1.28304452e-16
2.821947659e-16
6.219881366e-16
1.375901476e-15
3.057546835e-15
6.829608723e-15
1.531472768e-14
3.438540075e-14
7.682921996e-14
1.695266334e-13
3.652006621e-13
7.602177858e-13
1.511737338e-12
2.86147439e-12
2.710293094e-68
1.954470936e-67
1.049145907e-66
5.095550883e-66
2.377954851e-65
1.088500162e-64
4.921675474e-64
2.202416779e-63
9.761136916e-63
4.284491707e-62
1.862704218e-61
8.019750979e-61
3.419604371e-60
1.443889337e-59
6.037635087e-59
2.500060411e-58
1.02526071e-57
4.164194413e-57
1.67538876e-56
6.677905494e-56
2.637596785e-55
1.032543366e-54
4.007440693e-54
1.542405437e-53
5.888986975e-53
2.231074741e-52
8.389738318e-52
3.132194282e-51
1.161218445e-50
4.275753784e-50
1.563856471e-49
5.681801054e-49
2.05059295e-48
7.351027627e-48
2.617254626e-47
9.253537106e-47
3.248324909e-46
1.131926532e-45
3.914729702e-45
1.343472557e-44
4.574309854e-44
1.544991765e-43
5.175786432e-43
1.71962099e-42
5.665845808e-42
1.851199143e-41
5.99777592e-41
1.926984547e-40
6.139438304e-40
1.939815251e-39
6.078533633e-39
1.889183496e-38
5.823984578e-38
1.781038071e-37
5.403443889e-37
1.626485986e-36
4.857911228e-36
1.439807668e-35
4.234961612e-35
1.236280068e-34
3.58209142e-34
1.03023531e-33
2.941313696e-33
8.336317426e-33
2.345610205e-32
6.552468738e-32
1.817350912e-31
5.004644422e-31
1.368431692e-30
3.71537461e-30
1.001671558e-29
2.68166621e-29
7.129418328e-29
1.882291586e-28
4.935336942e-28
1.285161822e-27
3.323720605e-27
8.537531168e-27
2.178199743e-26
5.519951622e-26
1.389507452e-25
3.474491192e-25
8.63066482e-25
2.129801132e-24
5.221514691e-24
1.271859501e-23
3.078165733e-23
7.402567552e-23
1.76905227e-22
4.201456817e-22
9.917370147e-22
2.326857564e-21
5.427033802e-21
1.258406015e-20
2.901313497e-20
6.65180002e-20
1.516754176e-19
3.440272251e-19
7.763402981e-19
1.743377294e-18
3.896965328e-18
8.673760817e-18
1.923151944e-17
4.2499468e-17
9.366986599e-17
2.060815205e-16
4.530311504e-16
9.963641038e-16
2.195160709e-15
4.851983362e-15
1.076980004e-14
2.402204217e-14
5.377805797e-14
1.20512899e-13
2.686062184e-13
5.905852584e-13
1.264962641e-12
2.609179697e-12
5.114099846e-12
9.481297549e-12
7.189227898e-68
5.066087816e-67
2.687063644e-66
1.299822585e-65
6.067408163e-65
2.783342203e-64
1.262086765e-63
5.665269029e-63
2.51875584e-62
1.109064509e-61
4.836859729e-61
2.089003474e-60
8.935158386e-60
3.78446527e-59
1.587354689e-58
6.593141628e-58
2.712113343e-57
1.104939706e-56
4.459231705e-56
1.782910923e-55
7.064025069e-55
2.774091236e-54
1.080099901e-53
4.170603538e-53
1.597586576e-52
6.072712143e-52
2.291300787e-51
8.583547221e-51
3.193248314e-50
1.17989946e-49
4.330628001e-49
1.578937775e-48
5.718490958e-48
2.057150523e-47
7.349678867e-47
2.607468419e-46
9.184194099e-46
3.211068128e-45
1.114194352e-44
3.836134899e-44
1.3103131e-43
4.439559383e-43
1.491886191e-42
4.971886945e-42
1.643115839e-41
5.384676391e-41
1.749807114e-40
5.638509501e-40
1.801754372e-39
5.709587474e-39
1.794397854e-38
5.593312382e-38
1.729380926e-37
5.304206726e-37
1.613973724e-36
4.87255516e-36
1.459616373e-35
4.338886427e-35
1.27999874e-34
3.747696027e-34
1.089111136e-33
3.141666058e-33
8.996060317e-33
2.557239501e-32
7.216676737e-32
2.021939405e-31
5.624458816e-31
1.553425729e-30
4.260022452e-30
1.160002037e-29
3.136494445e-29
8.421363994e-29
2.245358827e-28
5.945218625e-28
1.563299921e-27
4.082471392e-27
1.058826762e-26
2.727488734e-26
6.978355193e-26
1.773413355e-25
4.476613111e-25
1.122505552e-24
2.796048445e-24
6.918901403e-24
1.700930772e-23
4.154469799e-23
1.008205149e-22
2.431159987e-22
5.82558277e-22
1.387262436e-21
3.283268865e-21
7.723607613e-21
1.806092957e-20
4.198640109e-20
9.704462991e-20
2.230375406e-19
5.097793188e-19
1.158900222e-18
2.62083984e-18
5.897290924e-18
1.320646303e-17
2.944269976e-17
6.537184395e-17
1.446256725e-16
3.190114397e-16
7.021429416e-16
1.543512585e-15
3.393013699e-15
7.467870219e-15
1.648079863e-14
3.650721861e-14
8.122643357e-14
1.813248199e-13
4.050371159e-13
8.993974029e-13
1.967920996e-12
4.18515495e-12
8.539481359e-12
1.646074434e-11
2.980023934e-11
1.845491375e-67
1.269054918e-66
6.652011221e-66
3.206521134e-65
1.497639772e-64
6.885965976e-64
3.131294951e-63
1.409861191e-62
6.287417687e-62
2.777023385e-61
1.214817513e-60
5.26271008e-60
2.257792448e-59
9.591691771e-59
4.035204705e-58
1.681064389e-57
6.93580508e-57
2.834184766e-56
1.14723656e-55
4.600815401e-55
1.828433455e-54
7.202514107e-54
2.813062746e-53
1.08964706e-52
4.187379837e-52
1.596881769e-51
6.045106738e-51
2.272161427e-50
8.481465381e-50
3.144568593e-49
1.158115676e-48
4.236952572e-48
1.539765664e-47
5.55797141e-47
1.992431991e-46
7.092240285e-46
2.506317521e-45
8.791335869e-45
3.060238558e-44
1.056953431e-43
3.621462851e-43
1.230768744e-42
4.148416156e-42
1.386635763e-41
4.59611182e-41