/*--------------------------------*- C++ -*----------------------------------*\
  =========                 |
  \\      /  F ield         | OpenFOAM: The Open Source CFD Toolbox
   \\    /   O peration     | Website:  https://openfoam.org
    \\  /    A nd           | Version:  7
     \\/     M anipulation  |
\*---------------------------------------------------------------------------*/
FoamFile
{
    version     2.0;
    format      ascii;
    class       volScalarField;
    location    "0.361";
    object      Y_CH2(S);
}
// * * * * * * * * * * * * * * * * * * * * * * * * * * * * * * * * * * * * * //

dimensions      [0 0 0 0 0 0 0];

internalField   nonuniform List<scalar> 
35870
(
-2.598349402e-78
-2.219564096e-77
-1.335546576e-76
-6.847464891e-76
-3.215436569e-75
-1.435057949e-74
-6.214925188e-74
-2.641680299e-73
-1.108786019e-72
-4.6090309e-72
-1.90005241e-71
-7.771530085e-71
-3.153992996e-70
-1.269758913e-69
-5.069244432e-69
-2.005969686e-68
-7.864329836e-68
-3.053042968e-67
-1.17310393e-66
-4.459414871e-66
-1.676480463e-65
-6.231094036e-65
-2.289211629e-64
-8.31207807e-64
-2.982843328e-63
-1.057999848e-62
-3.709908719e-62
-1.286461477e-61
-4.413373977e-61
-1.498700112e-60
-5.040863088e-60
-1.680566886e-59
-5.557955562e-59
-1.824948321e-58
-5.9543871e-58
-1.932129132e-57
-6.239910755e-57
-2.006970938e-56
-6.431773333e-56
-2.054319811e-55
-6.540048093e-55
-2.074933782e-54
-6.558249737e-54
-2.064006573e-53
-6.46398639e-53
-2.013031079e-52
-6.229354805e-52
-1.914099866e-51
-5.83605901e-51
-1.764582166e-50
-5.288109776e-50
-1.570013279e-49
-4.616347028e-49
-1.343917653e-48
-3.873012405e-48
-1.104795974e-47
-3.119278993e-47
-8.717031272e-47
-2.411259037e-46
-6.602492992e-46
-1.789750617e-45
-4.803173581e-45
-1.276267256e-44
-3.35779077e-44
-8.747441156e-44
-2.256519556e-43
-5.764345426e-43
-1.458318651e-42
-3.654391304e-42
-9.073040097e-42
-2.232779429e-41
-5.449531765e-41
-1.320269625e-40
-3.178674923e-40
-7.616007573e-40
-1.819051967e-39
-4.339421831e-39
-1.036004809e-38
-2.480102348e-38
-5.962879075e-38
-1.441410754e-37
-3.504482444e-37
-8.566129685e-37
-2.102674875e-36
-5.174106666e-36
-1.273679647e-35
-3.129402483e-35
-7.657026292e-35
-1.861822768e-34
-4.490251693e-34
-1.072354697e-33
-2.532399401e-33
-5.90674791e-33
-1.359519532e-32
-3.085606526e-32
-6.902636617e-32
-1.521665309e-31
-3.305903388e-31
-7.081324956e-31
-1.496798621e-30
-3.126299246e-30
-6.465224937e-30
-1.327408646e-29
-2.715372777e-29
-5.558242482e-29
-1.144184765e-28
-2.38112604e-28
-5.034052828e-28
-1.085114695e-27
-2.388573734e-27
-5.363445951e-27
-1.224198778e-26
-2.824740943e-26
-6.547036431e-26
-1.514269968e-25
-3.474332207e-25
-7.868085671e-25
-1.752635694e-24
-3.836794561e-24
-8.293579832e-24
-4.407142947e-78
-3.74118288e-77
-2.238234988e-76
-1.142814448e-75
-5.354699377e-75
-2.388836438e-74
-1.035559478e-73
-4.409988063e-73
-1.855512946e-72
-7.734102902e-72
-3.19751622e-71
-1.311655149e-70
-5.338756294e-70
-2.155506993e-69
-8.629712581e-69
-3.424280826e-68
-1.346057697e-67
-5.239050848e-67
-2.018068859e-66
-7.689869306e-66
-2.89765651e-65
-1.079415638e-64
-3.974304291e-64
-1.446158191e-63
-5.200628048e-63
-1.848527273e-62
-6.49566553e-62
-2.257314635e-61
-7.761157451e-61
-2.641600844e-60
-8.906386657e-60
-2.976832845e-59
-9.871496572e-59
-3.250589003e-58
-1.063825853e-57
-3.463138935e-57
-1.122240849e-56
-3.622317406e-56
-1.165100104e-55
-3.73524147e-55
-1.193603561e-54
-3.801027916e-54
-1.205789359e-53
-3.808314139e-53
-1.196735099e-52
-3.738970458e-52
-1.160569621e-51
-3.576352182e-51
-1.093365514e-50
-3.314243245e-50
-9.955715239e-50
-2.962407464e-49
-8.728855027e-49
-2.546272627e-48
-7.352220689e-48
-2.10116663e-47
-5.943184813e-47
-1.66380859e-46
-4.610366288e-46
-1.264578493e-45
-3.433736991e-45
-9.23058846e-45
-2.456732124e-44
-6.473981489e-44
-1.689216903e-43
-4.364300223e-43
-1.11656322e-42
-2.829020597e-42
-7.099908044e-42
-1.765492505e-41
-4.351924517e-41
-1.064140544e-40
-2.583641533e-40
-6.236238519e-40
-1.498801458e-39
-3.59326531e-39
-8.610604928e-39
-2.066671633e-38
-4.977645151e-38
-1.204861955e-37
-2.933485296e-37
-7.184556526e-37
-1.768776449e-36
-4.371016915e-36
-1.082134238e-35
-2.677882723e-35
-6.608425288e-35
-1.622621861e-34
-3.955900846e-34
-9.558310214e-34
-2.285255104e-33
-5.399168465e-33
-1.259169562e-32
-2.896243019e-32
-6.566115914e-32
-1.466701867e-31
-3.227662601e-31
-6.999059056e-31
-1.496419964e-30
-3.157861737e-30
-6.588212786e-30
-1.362025418e-29
-2.798871628e-29
-5.739217139e-29
-1.179755231e-28
-2.443496503e-28
-5.125105068e-28
-1.093350108e-27
-2.379006631e-27
-5.28327956e-27
-1.195324096e-26
-2.744347297e-26
-6.358873819e-26
-1.478040641e-25
-3.425360414e-25
-7.871388474e-25
-1.784987236e-24
-3.980596498e-24
-8.719218939e-24
-1.883721598e-23
-1.045706554e-77
-8.797933303e-77
-5.221636561e-76
-2.651114877e-75
-1.238627042e-74
-5.523376135e-74
-2.397773836e-73
-1.023761019e-72
-4.321727659e-72
-1.807950553e-71
-7.503180955e-71
-3.089765555e-70
-1.262449723e-69
-5.11639055e-69
-2.055965976e-68
-8.187427445e-68
-3.22962364e-67
-1.261238523e-66
-4.87400209e-66
-1.863040927e-65
-7.041391395e-65
-2.630673004e-64
-9.713434254e-64
-3.544338756e-63
-1.278108899e-62
-4.555388989e-62
-1.605160178e-61
-5.593734157e-61
-1.928791815e-60
-6.584503733e-60
-2.226982028e-59
-7.46799767e-59
-2.485158994e-58
-8.213905297e-58
-2.698819168e-57
-8.822391584e-57
-2.871478912e-56
-9.310755548e-56
-3.008821e-55
-9.692097807e-55
-3.111928979e-54
-9.956769765e-54
-3.173139117e-53
-1.006657977e-52
-3.176828972e-52
-9.965494804e-52
-3.1050463e-51
-9.60252664e-51
-2.94550862e-50
-8.956468789e-50
-2.698350563e-49
-8.051370134e-49
-2.37857775e-48
-6.95578993e-48
-2.013251436e-47
-5.766914505e-47
-1.634855305e-46
-4.586911774e-46
-1.273778129e-45
-3.501325181e-45
-9.527295229e-45
-2.566460473e-44
-6.844631992e-44
-1.807311124e-43
-4.724938556e-43
-1.223079918e-42
-3.134994639e-42
-7.957844849e-42
-2.000904785e-41
-4.985252072e-41
-1.231455028e-40
-3.018333365e-40
-7.348595683e-40
-1.779664721e-39
-4.294498489e-39
-1.034627639e-38
-2.493868458e-38
-6.026793116e-38
-1.462878687e-37
-3.571072293e-37
-8.77195566e-37
-2.167592004e-36
-5.38229449e-36
-1.340620894e-35
-3.342286957e-35
-8.32039261e-35
-2.063330276e-34
-5.085595549e-34
-1.24332003e-33
-3.009705695e-33
-7.202966645e-33
-1.702166179e-32
-3.967870619e-32
-9.116780063e-32
-2.063583337e-31
-4.600236898e-31
-1.010006833e-30
-2.184834782e-30
-4.660301055e-30
-9.815140324e-30
-2.045160199e-29
-4.227609639e-29
-8.700138079e-29
-1.790134868e-28
-3.700607645e-28
-7.7246719e-28
-1.635702283e-27
-3.526021921e-27
-7.751224211e-27
-1.737050556e-26
-3.958259872e-26
-9.134085469e-26
-2.123369339e-25
-4.945786829e-25
-1.14796721e-24
-2.642206653e-24
-6.002781963e-24
-1.341295515e-23
-2.942604852e-23
-6.359220047e-23
-2.798052579e-77
-2.330726157e-76
-1.371498114e-75
-6.922899226e-75
-3.225388748e-74
-1.437924273e-73
-6.252208943e-73
-2.676773645e-72
-1.13380899e-71
-4.760710215e-71
-1.983326437e-70
-8.198748867e-70
-3.362788612e-69
-1.367985747e-68
-5.517331382e-68
-2.204994589e-67
-8.727896165e-67
-3.419780709e-66
-1.325802563e-65
-5.083428158e-65
-1.927033095e-64
-7.220271634e-64
-2.673522523e-63
-9.782426158e-63
-3.537255488e-62
-1.264178505e-61
-4.466792105e-61
-1.560975926e-60
-5.398010857e-60
-1.848316142e-59
-6.271044789e-59
-2.10996451e-58
-7.046311277e-58
-2.33770707e-57
-7.711626069e-57
-2.531548167e-56
-8.275987945e-56
-2.695778851e-55
-8.752462898e-55
-2.832763414e-54
-9.138556409e-54
-2.937594115e-53
-9.404457931e-53
-2.996566853e-52
-9.496087454e-52
-2.99061776e-51
-9.352758767e-51
-2.902455675e-50
-8.932073137e-50
-2.724274385e-49
-8.231016292e-49
-2.462606124e-48
-7.293770587e-48
-2.138162551e-47
-6.20314019e-47
-1.780922788e-46
-5.059936804e-46
-1.422762361e-45
-3.959477748e-45
-1.090677997e-44
-2.97400421e-44
-8.027876502e-44
-2.145329975e-43
-5.675917272e-43
-1.486749772e-42
-3.855808605e-42
-9.901515869e-42
-2.518029746e-41
-6.343184346e-41
-1.583532711e-40
-3.920131412e-40
-9.632213402e-40
-2.351999454e-39
-5.716262448e-39
-1.385367869e-38
-3.35515605e-38
-8.137851945e-38
-1.980867369e-37
-4.847056503e-37
-1.193512116e-36
-2.95794752e-36
-7.373568268e-36
-1.846107052e-35
-4.632785967e-35
-1.162522395e-34
-2.909754607e-34
-7.247081823e-34
-1.792097153e-33
-4.391379593e-33
-1.064506512e-32
-2.549092629e-32
-6.022883692e-32
-1.402815219e-31
-3.218635694e-31
-7.271528443e-31
-1.617298897e-30
-3.541886307e-30
-7.641946424e-30
-1.626133203e-29
-3.418342606e-29
-7.115608678e-29
-1.471381385e-28
-3.034370778e-28
-6.26973792e-28
-1.304376908e-27
-2.745395321e-27
-5.868840001e-27
-1.277474906e-26
-2.833193101e-26
-6.394436518e-26
-1.464315503e-25
-3.388855395e-25
-7.889096958e-25
-1.838969022e-24
-4.272364753e-24
-9.84968698e-24
-2.243293609e-23
-5.02761058e-23
-1.105999651e-22
-2.393547497e-22
-7.876840812e-77
-6.489452169e-76
-3.784159562e-75
-1.898844163e-74
-8.823138504e-74
-3.933296854e-73
-1.713264319e-72
-7.355939824e-72
-3.126485386e-71
-1.317627965e-70
-5.510218213e-70
-2.286540903e-69
-9.413993718e-69
-3.843844555e-68
-1.555910842e-67
-6.240016772e-67
-2.478340292e-66
-9.742469898e-66
-3.788947918e-65
-1.457188592e-64
-5.540184726e-64
-2.081737752e-63
-7.729726053e-63
-2.836042833e-62
-1.028271666e-61
-3.684892529e-61
-1.30556937e-60
-4.575238202e-60
-1.586735459e-59
-5.449467715e-59
-1.854781591e-58
-6.261571311e-58
-2.098533872e-57
-6.988551333e-57
-2.314645699e-56
-7.630626937e-56
-2.505604121e-55
-8.199004746e-55
-2.674450696e-54
-8.696791121e-54
-2.818775027e-53
-9.102738029e-53
-2.927195686e-52
-9.367020953e-52
-2.980509593e-51
-9.42271821e-51
-2.957489182e-50
-9.209106063e-50
-2.8430088e-49
-8.696889941e-49
-2.634973218e-48
-7.90423719e-48
-2.346943225e-47
-6.896523661e-47
-2.005410798e-46
-5.770465382e-46
-1.643098696e-45
-4.630072671e-45
-1.291271526e-44
-3.564421294e-44
-9.739458294e-44
-2.634392351e-43
-7.054127748e-43
-1.869972359e-42
-4.907561829e-42
-1.275125599e-41
-3.280471276e-41
-8.357824526e-41
-2.109407057e-40
-5.276624587e-40
-1.309199447e-39
-3.22525394e-39
-7.900078255e-39
-1.927343906e-38
-4.692790462e-38
-1.142923409e-37
-2.790568548e-37
-6.844324388e-37
-1.688800099e-36
-4.195201782e-36
-1.049008633e-35
-2.637522682e-35
-6.656172701e-35
-1.682169062e-34
-4.246538573e-34
-1.068118336e-33
-2.670449611e-33
-6.62207697e-33
-1.625666384e-32
-3.944558297e-32
-9.44739e-32
-2.23098444e-31
-5.190159194e-31
-1.188768822e-30
-2.679750333e-30
-5.944991816e-30
-1.298391892e-29
-2.793804711e-29
-5.930652713e-29
-1.244533865e-28
-2.588953009e-28
-5.358377962e-28
-1.108205963e-27
-2.301375696e-27
-4.821929173e-27
-1.023688585e-26
-2.208641102e-26
-4.849722202e-26
-1.083332421e-25
-2.457289898e-25
-5.642155731e-25
-1.306775318e-24
-3.041225539e-24
-7.086953042e-24
-1.647353204e-23
-3.80523125e-23
-8.694644051e-23
-1.956367954e-22
-4.319400709e-22
-9.367098101e-22
-2.271457999e-76
-1.84889454e-75
-1.067837694e-74
-5.326187141e-74
-2.468639955e-73
-1.100695835e-72
-4.803789371e-72
-2.068628958e-71
-8.82294343e-71
-3.732157981e-70
-1.566695082e-69
-6.525906469e-69
-2.696898028e-68
-1.105224127e-67
-4.489761596e-67
-1.806878991e-66
-7.200443786e-66
-2.839678305e-65
-1.107823515e-64
-4.273375258e-64
-1.629449228e-63
-6.139980781e-63
-2.28613406e-62
-8.410606108e-62
-3.057671833e-61
-1.098698809e-60
-3.903373866e-60
-1.371730348e-59
-4.77108816e-59
-1.643545642e-58
-5.611851415e-58
-1.900926173e-57
-6.393799016e-57
-2.137416122e-56
-7.10793588e-56
-2.353251005e-55
-7.761560218e-55
-2.551448536e-54
-8.361538857e-54
-2.731785408e-53
-8.8954209e-53
-2.885715662e-52
-9.320592104e-52
-2.995168176e-51
-9.568512206e-51
-3.036437501e-50
-9.564106604e-50
-2.987950411e-49
-9.252871752e-49
-2.838707297e-48
-8.624158099e-48
-2.593703588e-47
-7.7202164e-47
-2.273948015e-46
-6.627403506e-46
-1.911239978e-45
-5.453979486e-45
-1.540171091e-44
-4.304458377e-44
-1.190690165e-43
-3.260176106e-43
-8.836256531e-43
-2.370798599e-42
-6.296941096e-42
-1.655699934e-41
-4.309946365e-41
-1.110831877e-40
-2.8353374e-40
-7.169736636e-40
-1.797212203e-39
-4.469593982e-39
-1.10414474e-38
-2.713598638e-38
-6.647412192e-38
-1.626663926e-37
-3.985615627e-37
-9.799982914e-37
-2.422766228e-36
-6.029707683e-36
-1.51128062e-35
-3.812491602e-35
-9.666298235e-35
-2.458013668e-34
-6.253114741e-34
-1.587285911e-33
-4.010058941e-33
-1.005915444e-32
-2.500237686e-32
-6.146498257e-32
-1.492238955e-31
-3.573247855e-31
-8.430597248e-31
-1.958321752e-30
-4.476195274e-30
-1.006524413e-29
-2.226729066e-29
-4.849025508e-29
-1.040473553e-28
-2.203531317e-28
-4.617192253e-28
-9.60338929e-28
-1.990841188e-27
-4.132801547e-27
-8.633283145e-27
-1.822900713e-26
-3.903997706e-26
-8.496255807e-26
-1.879498572e-25
-4.220637201e-25
-9.599735058e-25
-2.204951899e-24
-5.100206956e-24
-1.184708487e-23
-2.75723015e-23
-6.410960665e-23
-1.484206317e-22
-3.404267346e-22
-7.694275688e-22
-1.705286106e-21
-3.705014095e-21
-6.621393327e-76
-5.318909616e-75
-3.041084862e-74
-1.507692374e-73
-6.971784564e-73
-3.109796212e-72
-1.3601159e-71
-5.874972491e-71
-2.514603305e-70
-1.067653668e-69
-4.498813189e-69
-1.881006948e-68
-7.802422924e-68
-3.209182111e-67
-1.308293375e-66
-5.283224954e-66
-2.112357516e-65
-8.357237083e-65
-3.270396018e-64
-1.265288315e-63
-4.838461028e-63
-1.828294411e-62
-6.826019167e-62
-2.518037757e-61
-9.178861142e-61
-3.307078158e-60
-1.178126976e-59
-4.151817586e-59
-1.448273521e-58
-5.004244281e-58
-1.71419513e-57
-5.826422327e-57
-1.966855788e-56
-6.600517073e-56
-2.203966886e-55
-7.328113198e-55
-2.427788383e-54
-8.01754916e-54
-2.639759769e-53
-8.664652081e-53
-2.834478185e-52
-9.23661548e-52
-2.996300095e-51
-9.668510024e-51
-3.100868259e-50
-9.876501588e-50
-3.121636974e-49
-9.78393612e-49
-3.038988701e-48
-9.349839053e-48
-2.848130757e-47
-8.587417818e-47
-2.562245611e-46
-7.564513423e-46
-2.209644558e-45
-6.386309444e-45
-1.826363695e-44
-5.168555148e-44
-1.447552991e-43
-4.01254306e-43
-1.100916197e-42
-2.98990908e-42
-8.037888314e-42
-2.139008459e-41
-5.634800273e-41
-1.469486704e-40
-3.794307688e-40
-9.702686997e-40
-2.458305682e-39
-6.17535289e-39
-1.539570811e-38
-3.814463349e-38
-9.408296103e-38
-2.314906042e-37
-5.695262412e-37
-1.404424898e-36
-3.478986469e-36
-8.672164696e-36
-2.17739116e-35
-5.50651787e-35
-1.401269911e-34
-3.581659629e-34
-9.173421704e-34
-2.348050867e-33
-5.990240071e-33
-1.519276007e-32
-3.821973297e-32
-9.517537106e-32
-2.342073439e-31
-5.687047092e-31
-1.361021593e-30
-3.207166228e-30
-7.436144134e-30
-1.69570379e-29
-3.802478867e-29
-8.386896752e-29
-1.820794497e-28
-3.895973591e-28
-8.232880437e-28
-1.723160735e-27
-3.585661807e-27
-7.451576291e-27
-1.554132726e-26
-3.26851077e-26
-6.958110023e-26
-1.503012174e-25
-3.296378337e-25
-7.334346872e-25
-1.652156564e-24
-3.759034239e-24
-8.616665161e-24
-1.986367053e-23
-4.59815302e-23
-1.067844928e-22
-2.482943483e-22
-5.761837702e-22
-1.32669369e-21
-3.010958437e-21
-6.692582503e-21
-1.454862029e-20
-1.93520732e-75
-1.532382191e-74
-8.669228821e-74
-4.272107732e-73
-1.971340799e-72
-8.799046137e-72
-3.857293042e-71
-1.671418307e-70
-7.179542438e-70
-3.059656871e-69
-1.294122367e-68
-5.431150023e-68
-2.261160222e-67
-9.333812369e-67
-3.818477314e-66
-1.547229709e-65
-6.206456518e-65
-2.463243455e-64
-9.668623484e-64
-3.751692699e-63
-1.438729086e-62
-5.451530048e-62
-2.040873461e-61
-7.548692062e-61
-2.75902277e-60
-9.967251525e-60
-3.56047952e-59
-1.25827168e-58
-4.402055623e-58
-1.52572094e-57
-5.243303206e-57
-1.78830761e-56
-6.059040963e-56
-2.041264349e-55
-6.844037544e-55
-2.285453679e-54
-7.605629979e-54
-2.523245714e-53
-8.346407762e-53
-2.752324443e-52
-9.044904009e-52
-2.960539502e-51
-9.644853292e-51
-3.124878329e-50
-1.006056765e-49
-3.215932623e-49
-1.019883975e-48
-3.206652131e-48
-9.98963373e-48
-3.081970364e-47
-9.412826505e-47
-2.845124301e-46
-8.509249846e-46
-2.51794782e-45
-7.371495882e-45
-2.135159587e-44
-6.11927673e-44
-1.735414289e-43
-4.870568784e-43
-1.352898722e-42
-3.719519583e-42
-1.012187108e-41
-2.726432891e-41
-7.269303757e-41
-1.918513393e-40
-5.01236284e-40
-1.296574848e-39
-3.321738668e-39
-8.432802263e-39
-2.123057224e-38
-5.306710017e-38
-1.31892163e-37
-3.265644125e-37
-8.073286363e-37
-1.997705797e-36
-4.95993677e-36
-1.238261311e-35
-3.113102671e-35
-7.886474378e-35
-2.012325196e-34
-5.164573836e-34
-1.330328992e-33
-3.430354936e-33
-8.83015103e-33
-2.262907559e-32
-5.758987455e-32
-1.452242523e-31
-3.621667546e-31
-8.917483196e-31
-2.164929522e-30
-5.176354712e-30
-1.217863029e-29
-2.817671955e-29
-6.408344803e-29
-1.43270599e-28
-3.149943621e-28
-6.817059813e-28
-1.45464081e-27
-3.067969941e-27
-6.417404713e-27
-1.336999647e-26
-2.788001997e-26
-5.847812458e-26
-1.239112953e-25
-2.660125821e-25
-5.792590212e-25
-1.278616276e-24
-2.855807236e-24
-6.437971607e-24
-1.461595811e-23
-3.335521192e-23
-7.64732477e-23
-1.761420993e-22
-4.078114857e-22
-9.478677258e-22
-2.204002634e-21
-5.090278516e-21
-1.158171326e-20
-2.575910024e-20
-5.588653564e-20
-5.637313928e-75
-4.395060195e-74
-2.459221988e-73
-1.204667064e-72
-5.548672398e-72
-2.478903399e-71
-1.089383797e-70
-4.735774707e-70
-2.041550461e-69
-8.73267807e-69
-3.70743592e-68
-1.561706223e-67
-6.525622493e-67
-2.70329985e-66
-1.109753388e-65
-4.511722716e-65
-1.815651496e-64
-7.22846051e-64
-2.845803758e-63
-1.107450977e-62
-4.258877473e-62
-1.618160864e-61
-6.074130998e-61
-2.252637803e-60
-8.255148805e-60
-2.990232948e-59
-1.07107944e-58
-3.795844208e-58
-1.331870782e-57
-4.630415389e-57
-1.596492814e-56
-5.464000015e-56
-1.858126988e-55
-6.284524947e-55
-2.115834413e-54
-7.096129433e-54
-2.372086673e-53
-7.905778781e-53
-2.627190135e-52
-8.703371637e-52
-2.873098635e-51
-9.445295237e-51
-3.090007458e-50
-1.005135473e-49
-3.248200262e-49
-1.041970099e-48
-3.3153427e-48
-1.045601336e-47
-3.266747505e-47
-1.010580566e-46
-3.094384899e-46
-9.375910342e-46
-2.810723234e-45
-8.335940896e-45
-2.445793042e-44
-7.099579933e-44
-2.039049229e-43
-5.794900422e-43
-1.629776806e-42
-4.536368365e-42
-1.249712943e-41
-3.407585487e-41
-9.196487753e-41
-2.456619841e-40
-6.495415408e-40
-1.700076333e-39
-4.405650639e-39
-1.130819698e-38
-2.876621729e-38
-7.25897614e-38
-1.819398231e-37
-4.537041533e-37
-1.128019919e-36
-2.802892044e-36
-6.97837461e-36
-1.745113367e-35
-4.392195743e-35
-1.113934343e-34
-2.847422824e-34
-7.329758569e-34
-1.896694298e-33
-4.921665824e-33
-1.277091466e-32
-3.304368729e-32
-8.502277261e-32
-2.170189472e-31
-5.483307901e-31
-1.368889825e-30
-3.371292164e-30
-8.180120076e-30
-1.953426776e-29
-4.587249668e-29
-1.058721259e-28
-2.400902931e-28
-5.35038235e-28
-1.172409561e-27
-2.529283672e-27
-5.382999589e-27
-1.133560202e-26
-2.371214434e-26
-4.950697794e-26
-1.036977784e-25
-2.189536607e-25
-4.677114454e-25
-1.012469706e-24
-2.220575399e-24
-4.9250794e-24
-1.101820165e-23
-2.47953129e-23
-5.602379191e-23
-1.269731794e-22
-2.889130737e-22
-6.611160435e-22
-1.524516902e-21
-3.539643372e-21
-8.238481598e-21
-1.904692659e-20
-4.331176351e-20
-9.602660027e-20
-2.071744289e-19
-1.628964715e-74
-1.24890418e-73
-6.908992837e-73
-3.364721084e-72
-1.5473997e-71
-6.921198536e-71
-3.049593268e-70
-1.330109781e-69
-5.754630736e-69
-2.47063126e-68
-1.05279195e-67
-4.451021202e-67
-1.866573915e-66
-7.759634242e-66
-3.196340054e-65
-1.303763545e-64
-5.263428704e-64
-2.101896677e-63
-8.299515927e-63
-3.239001853e-62
-1.249062113e-61
-4.758641218e-61
-1.791007029e-60
-6.659557657e-60
-2.446923679e-59
-8.886988129e-59
-3.19191632e-58
-1.134379494e-57
-3.99196543e-57
-1.392154951e-56
-4.815690377e-56
-1.653929984e-55
-5.645391845e-55
-1.916906516e-54
-6.480558455e-54
-2.182904126e-53
-7.32972092e-53
-2.454045831e-52
-8.192585841e-52
-2.726409575e-51
-9.04034246e-51
-2.984800002e-50
-9.804879045e-50
-3.20181863e-49
-1.038496352e-48
-3.342774585e-48
-1.067022167e-47
-3.375310927e-47
-1.057508582e-46
-3.280106825e-46
-1.006882599e-45
-3.058123161e-45
-9.188754306e-45
-2.731239417e-44
-8.03099263e-44
-2.336204332e-43
-6.723930542e-43
-1.914915642e-42
-5.396729492e-42
-1.505213758e-41
-4.155012618e-41
-1.135173058e-40
-3.069503614e-40
-8.214688856e-40
-2.175940727e-39
-5.705390598e-39
-1.481196025e-38
-3.809080724e-38
-9.709930582e-38
-2.456152408e-37
-6.173984974e-37
-1.545112685e-36
-3.858566742e-36
-9.639962764e-36
-2.415752072e-35
-6.086935331e-35
-1.54488476e-34
-3.953028574e-34
-1.019558451e-33
-2.647195319e-33
-6.904261236e-33
-1.803981935e-32
-4.708257804e-32
-1.223905666e-31
-3.160338681e-31
-8.086917681e-31
-2.046438743e-30
-5.112269562e-30
-1.258868233e-29
-3.051822434e-29
-7.276383533e-29
-1.704985875e-28
-3.924339507e-28
-8.871378927e-28
-1.970240455e-27
-4.302509485e-27
-9.253063641e-27
-1.964678291e-26
-4.132973191e-26
-8.652843435e-26
-1.812313768e-25
-3.817339705e-25
-8.12104482e-25
-1.749417957e-24
-3.816979772e-24
-8.42110249e-24
-1.873069086e-23
-4.187151811e-23
-9.381574085e-23
-2.104000046e-22
-4.723876951e-22
-1.064486034e-21
-2.416259621e-21
-5.544120439e-21
-1.284638453e-20
-2.987372784e-20
-6.890385205e-20
-1.558465197e-19
-3.426059028e-19
-7.316465586e-19
-4.649736819e-74
-3.501279819e-73
-1.914359107e-72
-9.270625737e-72
-4.258292287e-71
-1.907359544e-70
-8.427324842e-70
-3.687999019e-69
-1.601322371e-68
-6.90016479e-68
-2.95109697e-67
-1.252192118e-66
-5.269826053e-66
-2.198328932e-65
-9.08572648e-65
-3.718020028e-64
-1.505698145e-63
-6.0309735e-63
-2.38830396e-62
-9.34688786e-62
-3.614295611e-61
-1.380633886e-60
-5.209909069e-60
-1.942257352e-59
-7.155058381e-59
-2.6055162e-58
-9.383519209e-58
-3.344184722e-57
-1.180302445e-56
-4.128947378e-56
-1.432974366e-55
-4.938751118e-55
-1.692044304e-54
-5.76810011e-54
-1.958160941e-53
-6.624463768e-53
-2.234290493e-52
-7.514535498e-52
-2.520063665e-51
-8.424204882e-51
-2.805570599e-50
-9.302085853e-50
-3.067968923e-49
-1.005666758e-48
-3.273494046e-48
-1.057216188e-47
-3.385210563e-47
-1.073973953e-46
-3.374059998e-46
-1.049245879e-45
-3.228722675e-45
-9.829298498e-45
-2.96007778e-44
-8.817749116e-44
-2.598358343e-43
-7.574584552e-43
-2.184638076e-42
-6.234559486e-42
-1.760667479e-41
-4.920659895e-41
-1.361006475e-40
-3.725565399e-40
-1.009290948e-39
-2.706038818e-39
-7.180687474e-39
-1.886140176e-38
-4.905534807e-38
-1.263947846e-37
-3.228929645e-37
-8.18828119e-37
-2.064598534e-36
-5.186611274e-36
-1.301376466e-35
-3.270115777e-35
-8.251327301e-35
-2.095472984e-34
-5.364247827e-34
-1.384917154e-33
-3.603685869e-33
-9.434935904e-33
-2.479262812e-32
-6.519799122e-32
-1.710662704e-31
-4.465392594e-31
-1.15659672e-30
-2.965727308e-30
-7.513561715e-30
-1.877550465e-29
-4.621142054e-29
-1.118935758e-28
-2.662863414e-28
-6.224156645e-28
-1.428336035e-27
-3.218045698e-27
-7.121545178e-27
-1.549780321e-26
-3.323070086e-26
-7.04188488e-26
-1.48082474e-25
-3.105927789e-25
-6.533555622e-25
-1.385430536e-24
-2.971803829e-24
-6.456108963e-24
-1.418617388e-23
-3.143294748e-23
-6.996134849e-23
-1.558792842e-22
-3.467928066e-22
-7.698870469e-22
-1.708004884e-21
-3.803683484e-21
-8.552392197e-21
-1.95087626e-20
-4.505935673e-20
-1.044106939e-19
-2.390916425e-19
-5.343759219e-19
-1.156743264e-18
-2.431447839e-18
-1.305945993e-73
-9.645943674e-73
-5.211229777e-72
-2.510113182e-71
-1.15197883e-70
-5.168512319e-70
-2.29016764e-69
-1.005623921e-68
-4.3819985e-68
-1.895070692e-67
-8.134217106e-67
-3.463770703e-66
-1.462809799e-65
-6.122914899e-65
-2.538946002e-64
-1.042282576e-63
-4.233913567e-63
-1.700880267e-62
-6.754809122e-62
-2.650865175e-61
-1.027797868e-60
-3.936408531e-60
-1.489267085e-59
-5.566260508e-59
-2.055839563e-58
-7.505965787e-58
-2.710480663e-57
-9.686873478e-57
-3.428930816e-56
-1.203232279e-55
-4.189648605e-55
-1.449032793e-54
-4.983011024e-54
-1.705402685e-53
-5.813576875e-53
-1.975232669e-52
-6.691601966e-52
-2.260686884e-51
-7.615439138e-51
-2.556983041e-50
-8.55227804e-50
-2.847273985e-49
-9.427592377e-49
-3.101766821e-48
-1.013147412e-47
-3.282721275e-47
-1.054320256e-46
-3.354381236e-46
-1.056641924e-45
-3.294152022e-45
-1.016094783e-44
-3.100413223e-44
-9.357509426e-44
-2.793511261e-43
-8.249166692e-43
-2.409774491e-42
-6.964580698e-42
-1.991641783e-41
-5.635900783e-41
-1.578254592e-40
-4.373855265e-40
-1.199569106e-39
-3.255771836e-39
-8.744856409e-39
-2.324603795e-38
-6.116727233e-38
-1.593739193e-37
-4.114413756e-37
-1.053418577e-36
-2.678445364e-36
-6.775444689e-36
-1.709020693e-35
-4.309756493e-35
-1.089608513e-34
-2.769215096e-34
-7.089888702e-34
-1.830858246e-33
-4.769141796e-33
-1.251759124e-32
-3.303578674e-32
-8.742400275e-32
-2.31273944e-31
-6.097369155e-31
-1.597485592e-30
-4.148605357e-30
-1.065550104e-29
-2.701626617e-29
-6.750757576e-29
-1.660206387e-28
-4.013870703e-28
-9.531696413e-28
-2.221840636e-27
-5.082347951e-27
-1.140993033e-26
-2.51579663e-26
-5.456081121e-26
-1.166704073e-25
-2.468756542e-25
-5.193976769e-25
-1.092611366e-24
-2.311234719e-24
-4.938999823e-24
-1.068734166e-23
-2.340705473e-23
-5.173618226e-23
-1.149113722e-22
-2.553292303e-22
-5.65531891e-22
-1.245861482e-21
-2.730338218e-21
-5.970097703e-21
-1.311316894e-20
-2.917330817e-20
-6.612179069e-20
-1.520507642e-19
-3.498856426e-19
-7.90495722e-19
-1.731541035e-18
-3.659192064e-18
-7.519390463e-18
-3.595342178e-73
-2.60138674e-72
-1.388424931e-71
-6.654100051e-71
-3.052278233e-70
-1.372042616e-69
-6.097492922e-69
-2.686519405e-68
-1.174787539e-67
-5.098733793e-67
-2.196300036e-66
-9.385182643e-66
-3.977085922e-65
-1.670243285e-64
-6.948213857e-64
-2.861251792e-63
-1.165773764e-62
-4.696790373e-62
-1.870473991e-61
-7.360363004e-61
-2.861278717e-60
-1.098676213e-59
-4.167199715e-59
-1.561468207e-58
-5.781809427e-58
-2.116439634e-57
-7.663083305e-57
-2.746288097e-56
-9.749618414e-56
-3.431778304e-55
-1.198874286e-54
-4.160964576e-54
-1.436227232e-53
-4.934770243e-53
-1.689178266e-52
-5.763804995e-52
-1.961213058e-51
-6.655143432e-51
-2.251777561e-50
-7.593408147e-50
-2.550415038e-49
-8.525150951e-49
-2.833534157e-48
-9.356114745e-48
-3.066340342e-47
-9.966615432e-47
-3.210425007e-46
-1.024229085e-45
-3.234709549e-45
-1.01090985e-44
-3.1254583e-44
-9.558057811e-44
-2.891016708e-43
-8.648867257e-43
-2.55930743e-42
-7.49173239e-42
-2.169634977e-41
-6.217004626e-41
-1.762794891e-40
-4.946184258e-40
-1.373390383e-39
-3.773709566e-39
-1.026090985e-38
-2.760898481e-38
-7.351876114e-38
-1.937862699e-37
-5.058341377e-37
-1.308462653e-36
-3.357769346e-36
-8.561237938e-36
-2.173135172e-35
-5.505129065e-35
-1.395692763e-34
-3.55142959e-34
-9.093669183e-34
-2.347642052e-33
-6.115906041e-33
-1.607200693e-32
-4.253945415e-32
-1.131246092e-31
-3.013433164e-31
-8.015400203e-31
-2.122330389e-30
-5.578350802e-30
-1.451877171e-29
-3.733852041e-29
-9.470942864e-29
-2.365710759e-28
-5.811552306e-28
-1.402540598e-27
-3.322532923e-27
-7.721766688e-27
-1.760268845e-26
-3.937226508e-26
-8.649169346e-26
-1.869567704e-25
-3.98829741e-25
-8.432638203e-25
-1.776751763e-24
-3.753284642e-24
-7.993777626e-24
-1.723023421e-23
-3.76176725e-23
-8.300166009e-23
-1.842580366e-22
-4.093809739e-22
-9.058584333e-22
-1.989240843e-21
-4.327391899e-21
-9.335862031e-21
-2.006935852e-20
-4.340263987e-20
-9.548738897e-20
-2.150726632e-19
-4.920103567e-19
-1.120216092e-18
-2.479091075e-18
-5.272080191e-18
-1.077136506e-17
-2.146893833e-17
-9.664598593e-73
-6.840741247e-72
-3.606675724e-71
-1.720537635e-70
-7.891228202e-70
-3.554667078e-69
-1.584493244e-68
-7.00476468e-68
-3.073781147e-67
-1.338745072e-66
-5.786744138e-66
-2.481251338e-65
-1.054976437e-64
-4.444969739e-64
-1.854927797e-63
-7.661761443e-63
-3.130811371e-62
-1.264937513e-61
-5.051286954e-61
-1.992947819e-60
-7.767345398e-60
-2.990035355e-59
-1.136925303e-58
-4.270706342e-58
-1.585324884e-57
-5.817954959e-57
-2.112093432e-56
-7.590145553e-56
-2.702395253e-55
-9.541431724e-55
-3.344160684e-54
-1.164715398e-53
-4.035114771e-53
-1.391865257e-52
-4.78390681e-52
-1.639288365e-51
-5.602070799e-51
-1.909288612e-50
-6.488068049e-50
-2.197162978e-49
-7.409860758e-49
-2.486544482e-48
-8.295217597e-48
-2.748556272e-47
-9.037392826e-47
-2.946397676e-46
-9.517885815e-46
-3.044607068e-45
-9.639562703e-45
-3.019705697e-44
-9.357266345e-44
-2.867816098e-43
-8.692633029e-43
-2.605913179e-42
-7.726990056e-42
-2.2664636e-41
-6.576956449e-41
-1.888355844e-40
-5.364861356e-40
-1.508226051e-39
-4.19575386e-39
-1.154996187e-38
-3.146073185e-38
-8.479737236e-38
-2.261871005e-37
-5.972270312e-37
-1.561756843e-36
-4.048043192e-36
-1.041277132e-35
-2.662653216e-35
-6.78335579e-35
-1.726257146e-34
-4.401183969e-34
-1.127464964e-33
-2.909311633e-33
-7.574383184e-33
-1.990575716e-32
-5.276299673e-32
-1.407819208e-31
-3.770708915e-31
-1.010584341e-30
-2.701385564e-30
-7.180231219e-30
-1.892509325e-29
-4.934551165e-29
-1.270205875e-28
-3.222203184e-28
-8.043254316e-28
-1.973154453e-27
-4.752163063e-27
-1.122756124e-26
-2.601008369e-26
-5.907966227e-26
-1.316429846e-25
-2.88126124e-25
-6.208753391e-25
-1.321994604e-24
-2.795264766e-24
-5.90511923e-24
-1.254322184e-23
-2.692936701e-23
-5.858527861e-23
-1.290253038e-22
-2.864951582e-22
-6.376312387e-22
-1.413926224e-21
-3.107910603e-21
-6.74854327e-21
-1.445659377e-20
-3.061707584e-20
-6.455262705e-20
-1.372728577e-19
-2.987548047e-19
-6.696417964e-19
-1.524726346e-18
-3.425042826e-18
-7.369765391e-18
-1.507291277e-17
-2.950684339e-17
-5.662657638e-17
-2.526300615e-72
-1.746854365e-71
-9.098297929e-71
-4.32227305e-70
-1.982891908e-69
-8.952406812e-69
-4.002692391e-68
-1.775434825e-67
-7.8174396e-67
-3.416472966e-66
-1.481782769e-65
-6.374845432e-65
-2.719276393e-64
-1.149353459e-63
-4.811044003e-63
-1.993076532e-62
-8.167466322e-62
-3.308961861e-61
-1.324876672e-60
-5.240660896e-60
-2.047625359e-59
-7.901736202e-59
-3.01186206e-58
-1.134122264e-57
-4.22032859e-57
-1.552709595e-56
-5.651474304e-56
-2.03647237e-55
-7.271452087e-55
-2.575173372e-54
-9.054967872e-54
-3.164600348e-53
-1.100390857e-52
-3.810376262e-52
-1.314946641e-51
-4.524725165e-51
-1.552851568e-50
-5.315011535e-50
-1.813758035e-49
-6.167555668e-49
-2.088251026e-48
-7.034131631e-48
-2.355015173e-47
-7.829390844e-47
-2.5824384e-46
-8.444067613e-46
-2.735213262e-45
-8.771985092e-45
-2.784039444e-44
-8.741381656e-44
-2.714678453e-43
-8.337603471e-43
-2.532430376e-42
-7.60721534e-42
-2.260189679e-41