/*--------------------------------*- C++ -*----------------------------------*\
  =========                 |
  \\      /  F ield         | OpenFOAM: The Open Source CFD Toolbox
   \\    /   O peration     | Website:  https://openfoam.org
    \\  /    A nd           | Version:  7
     \\/     M anipulation  |
\*---------------------------------------------------------------------------*/
FoamFile
{
    version     2.0;
    format      ascii;
    class       volScalarField;
    location    "0.361";
    object      Y_CH2O;
}
// * * * * * * * * * * * * * * * * * * * * * * * * * * * * * * * * * * * * * //

dimensions      [0 0 0 0 0 0 0];

internalField   nonuniform List<scalar> 
35870
(
2.587897675e-80
2.607035454e-79
1.749533532e-78
9.647132145e-78
4.729579637e-77
2.150935103e-76
9.315980182e-76
3.906720814e-75
1.602868074e-74
6.473315571e-74
2.582421567e-73
1.019489842e-72
3.98677594e-72
1.545006175e-71
5.934961844e-71
2.260064451e-70
8.532388509e-70
3.193520996e-69
1.185038371e-68
4.359727998e-68
1.590208362e-67
5.750631064e-67
2.061824343e-66
7.329332193e-66
2.583225426e-65
9.02715207e-65
3.127812835e-64
1.074587041e-63
3.660725981e-63
1.236604169e-62
4.142365878e-62
1.37605713e-61
4.533279893e-61
1.481143064e-60
4.799727532e-60
1.542727842e-59
4.918606011e-59
1.555630077e-58
4.881138549e-58
1.519618136e-57
4.694693602e-57
1.439517395e-56
4.381899801e-56
1.324552663e-55
3.977362372e-55
1.186959422e-54
3.522330359e-54
1.040073166e-53
3.058286788e-53
8.963125903e-53
2.62079331e-52
7.653505119e-52
2.234703271e-51
6.530990749e-51
1.912346988e-50
5.614884271e-50
1.654091991e-49
4.89057127e-49
1.451256877e-48
4.321030167e-48
1.29017114e-47
3.860051396e-47
1.156200653e-46
3.463751223e-46
1.036835606e-45
3.098242923e-45
9.233976094e-45
2.742809042e-44
8.11419476e-44
2.389412006e-43
7.000444088e-43
2.039757689e-42
5.908961478e-42
1.701419638e-41
4.868443969e-41
1.384130151e-40
3.909462173e-40
1.096905266e-39
3.05705879e-39
8.462553763e-39
2.3267374e-38
6.353779649e-38
1.723262684e-37
4.642007775e-37
1.241939747e-36
3.300237929e-36
8.71072878e-36
2.283744251e-35
5.947693111e-35
1.538820032e-34
3.955503461e-34
1.010262947e-33
2.564119726e-33
6.468097072e-33
1.621898657e-32
4.043610251e-32
1.002577909e-31
2.472839976e-31
6.069447611e-31
1.483040469e-30
3.609192567e-30
8.753143906e-30
2.116876065e-29
5.109094205e-29
1.231686319e-28
2.969206952e-28
7.166535739e-28
1.73445388e-27
4.21618357e-27
1.031294341e-26
2.542705837e-26
6.32815354e-26
1.590451924e-25
4.033362498e-25
1.029265814e-24
2.631452172e-24
6.701875496e-24
1.691145659e-23
4.216703597e-23
1.044647423e-22
5.275338235e-80
5.278073879e-79
3.515537982e-78
1.925529384e-77
9.391918575e-77
4.257450549e-76
1.841298336e-75
7.721763809e-75
3.171624594e-74
1.283198607e-73
5.130557915e-73
2.030435277e-72
7.960697891e-72
3.093178235e-71
1.191381869e-70
4.54899994e-70
1.721996891e-69
6.462491977e-69
2.40456238e-68
8.870327102e-68
3.244269748e-67
1.176432108e-66
4.22959887e-66
1.507700731e-65
5.328736727e-65
1.86737194e-64
6.488520792e-64
2.235508937e-63
7.637226617e-63
2.587224256e-62
8.691320858e-62
2.895367055e-61
9.565386502e-61
3.134003927e-60
1.018399646e-59
3.282263186e-59
1.04927554e-58
3.327335492e-58
1.046726144e-57
3.266991366e-57
1.011824852e-56
3.110198111e-56
9.490820283e-56
2.87600807e-55
8.658079925e-55
2.590688417e-54
7.709674628e-54
2.283504863e-53
6.737393388e-53
1.982114549e-52
5.820748855e-52
1.708215973e-51
5.015669445e-51
1.475108061e-50
4.349690704e-50
1.28698315e-49
3.82285086e-49
1.140202679e-48
3.414223691e-48
1.02592769e-47
3.091317747e-47
9.332087291e-47
2.819559762e-46
8.517173333e-46
2.569668772e-45
7.735899984e-45
2.321793205e-44
6.94207785e-44
2.066478605e-43
6.120904462e-43
1.803235776e-42
5.281857412e-42
1.537778601e-41
4.449132578e-41
1.278950995e-40
3.652325724e-40
1.036040154e-39
2.919052022e-39
8.168511936e-39
2.270213851e-38
6.266185879e-38
1.717699454e-37
4.676252723e-37
1.264327449e-36
3.39500461e-36
9.054262286e-36
2.398363006e-35
6.310267928e-35
1.649220713e-34
4.281941516e-34
1.104518656e-33
2.830890981e-33
7.210196611e-33
1.825208392e-32
4.593021749e-32
1.149213352e-31
2.859763174e-31
7.079796376e-31
1.744324239e-30
4.278940166e-30
1.045589034e-29
2.546602142e-29
6.186298033e-29
1.500140456e-28
3.63474094e-28
8.809731027e-28
2.13878958e-27
5.209396055e-27
1.275164909e-26
3.143056289e-26
7.814406667e-26
1.962549398e-25
4.98017623e-25
1.275558276e-24
3.286828128e-24
8.478716535e-24
2.175591621e-23
5.519483288e-23
1.379838714e-22
3.415755012e-22
1.582789429e-79
1.568798773e-78
1.034607128e-77
5.617936426e-77
2.722691167e-76
1.229400482e-75
5.308609765e-75
2.226812729e-74
9.160850196e-74
3.715296067e-73
1.48979346e-72
5.914545572e-72
2.326554826e-71
9.070240841e-71
3.505333809e-70
1.342953076e-69
5.100910824e-69
1.920817392e-68
7.17128809e-68
2.65446583e-67
9.741730285e-67
3.544639056e-66
1.278783774e-65
4.574160709e-65
1.622279207e-64
5.704825073e-64
1.98917225e-63
6.877348617e-63
2.357760486e-62
8.015228387e-62
2.701975857e-61
9.032450138e-61
2.994332952e-60
9.844158855e-60
3.209677246e-59
1.037910106e-58
3.328865489e-58
1.059008665e-57
3.342015376e-57
1.046343009e-56
3.25061155e-56
1.002240466e-55
3.067705927e-55
9.32489422e-55
2.816164315e-54
8.454724755e-54
2.525027238e-53
7.507822034e-53
2.224679362e-52
6.57642615e-52
1.94175902e-51
5.733553597e-51
1.695166805e-50
5.024109138e-50
1.494115738e-49
4.461632752e-49
1.338290768e-48
4.032359219e-48
1.22002885e-47
3.704226393e-47
1.127591227e-46
3.437764478e-46
1.048539567e-45
3.195911068e-45
9.724100981e-45
2.950762926e-44
8.922483149e-44
2.686539088e-43
8.050021313e-43
2.399298682e-42
7.11021723e-42
2.094379588e-41
6.13046878e-41
1.782844116e-40
5.150501283e-40
1.477926365e-39
4.211985952e-39
1.192137821e-38
3.350859418e-38
9.353389183e-38
2.592741935e-37
7.137164627e-37
1.951063231e-36
5.296674671e-36
1.428015622e-35
3.823628709e-35
1.016837069e-34
2.685865488e-34
7.046993722e-34
1.836731329e-33
4.75610665e-33
1.22369202e-32
3.128719752e-32
7.950724305e-32
2.008518207e-31
5.045157886e-31
1.260435005e-30
3.13295659e-30
7.750655029e-30
1.909280174e-29
4.685663891e-29
1.146348699e-28
2.797782136e-28
6.817812638e-28
1.660494198e-27
4.04695542e-27
9.883523706e-27
2.422857825e-26
5.972443067e-26
1.483467396e-25
3.719340955e-25
9.426363656e-25
2.41517331e-24
6.247277485e-24
1.62524561e-23
4.228909844e-23
1.092696705e-22
2.784969524e-22
6.97279917e-22
1.722162337e-21
5.361915124e-79
5.257831519e-78
3.430236836e-77
1.84577813e-76
8.88766572e-76
3.99814273e-75
1.724189283e-74
7.236563253e-74
2.982553647e-73
1.212787154e-72
4.878102486e-72
1.94300472e-71
7.669079812e-71
3.000150638e-70
1.163477307e-69
4.472955886e-69
1.704864427e-68
6.4422285e-68
2.413563529e-67
8.964995787e-67
3.301600228e-66
1.20553203e-65
4.364426932e-65
1.566637457e-64
5.575891051e-64
1.967730017e-63
6.88545849e-63
2.389017731e-62
8.219307868e-62
2.804046828e-61
9.485911029e-61
3.182163738e-60
1.05858312e-59
3.492184593e-59
1.142500519e-58
3.706904299e-58
1.192843325e-57
3.807156255e-57
1.205322974e-56
3.785695354e-56
1.179781998e-55
3.648975691e-55
1.12043072e-54
3.416759545e-54
1.035325708e-53
3.119205845e-53
9.350759609e-53
2.79179203e-52
8.310248422e-52
2.469156918e-51
7.332347533e-51
2.179065231e-50
6.48912617e-50
1.938602543e-49
5.815338402e-49
1.752683842e-48
5.308475345e-48
1.615466591e-47
4.936891303e-47
1.513810944e-46
4.652601551e-46
1.431595239e-45
4.40481219e-45
1.353690809e-44
4.150865422e-44
1.268757724e-43
3.862700448e-43
1.170532394e-42
3.528709549e-42
1.05777842e-41
3.151851062e-41
9.332711827e-41
2.745537275e-40
8.023284638e-40
2.328777894e-39
6.712969426e-39
1.921689668e-38
5.462795293e-38
1.542056073e-37
4.322514351e-37
1.203155129e-36
3.325503487e-36
9.127453923e-36
2.48775701e-35
6.733579756e-35
1.810011125e-34
4.832094461e-34
1.281252365e-33
3.374507373e-33
8.828761559e-33
2.294811462e-32
5.926587565e-32
1.521019631e-31
3.879822731e-31
9.838360614e-31
2.480689647e-30
6.221313938e-30
1.55238367e-29
3.855589806e-29
9.535918804e-29
2.349874879e-28
5.773284388e-28
1.415191114e-27
3.464346046e-27
8.477819661e-27
2.076676874e-26
5.099087286e-26
1.257291617e-25
3.118920415e-25
7.80078511e-25
1.970646971e-24
5.035612539e-24
1.301436374e-23
3.396383749e-23
8.911192845e-23
2.336236684e-22
6.071457532e-22
1.55259811e-21
3.887730583e-21
9.56545166e-21
1.91146408e-78
1.8518687e-77
1.194145497e-76
6.364939068e-76
3.044955008e-75
1.364970416e-74
5.880677112e-74
2.470337787e-73
1.020303749e-72
4.160553871e-72
1.678864602e-71
6.709905904e-71
2.657693678e-70
1.043365252e-69
4.060602916e-69
1.56663185e-68
5.992449206e-68
2.272437296e-67
8.543949121e-67
3.184877902e-66
1.177099626e-65
4.313356511e-65
1.567166989e-64
5.64559922e-64
2.016564868e-63
7.142018375e-63
2.50811151e-62
8.733547947e-62
3.015516215e-61
1.032433038e-60
3.505089375e-60
1.179984292e-59
3.93913071e-59
1.304008401e-58
4.280854756e-58
1.393662399e-57
4.4996897e-57
1.440900562e-56
4.576718517e-56
1.442119234e-55
4.508749012e-55
1.399033082e-54
4.309854188e-54
1.3187084e-53
4.00984924e-53
1.212552901e-52
3.64949604e-52
1.094365234e-51
3.273327336e-51
9.778344897e-51
2.921345341e-50
8.740600498e-50
2.6224419e-49
7.898825688e-49
2.390411206e-48
7.271714364e-48
2.223696432e-47
6.833291128e-47
2.10855055e-46
6.526818187e-46
2.024280631e-45
6.282733872e-45
1.948940454e-44
6.03556976e-44
1.864044282e-43
5.736149731e-43
1.75744104e-42
5.357532365e-42
1.62424829e-41
4.895177867e-41
1.466140795e-40
4.362824847e-40
1.28962551e-39
3.786186538e-39
1.103920105e-38
3.196228191e-38
9.189247886e-38
2.623316094e-37
7.436094642e-37
2.092973526e-36
5.849350288e-36
1.623232284e-35
4.472917791e-35
1.223911191e-34
3.325623456e-34
8.973862518e-34
2.404872801e-33
6.400864748e-33
1.692200066e-32
4.443957406e-32
1.15941461e-31
3.005471563e-31
7.742036773e-31
1.982180953e-30
5.045056321e-30
1.276825117e-29
3.214131855e-29
8.050339025e-29
2.007032124e-28
4.983047641e-28
1.232741863e-27
3.040744466e-27
7.484181391e-27
1.839838857e-26
4.522122107e-26
1.11281092e-25
2.745716928e-25
6.805589757e-25
1.69779619e-24
4.272714969e-24
1.08668728e-23
2.797280867e-23
7.285739666e-23
1.916467542e-22
5.066089414e-22
1.336799041e-21
3.490209652e-21
8.943892728e-21
2.236723199e-20
5.473753355e-20
6.983584256e-78
6.675567899e-77
4.251008727e-76
2.24365926e-75
1.066439088e-74
4.765011853e-74
2.051595607e-73
8.628568804e-73
3.572206978e-72
1.461042056e-71
5.915379516e-71
2.372494335e-70
9.430811495e-70
3.715736998e-69
1.451340451e-68
5.619738563e-68
2.15737608e-67
8.210773586e-67
3.098298932e-66
1.159118331e-65
4.299533442e-65
1.581238831e-64
5.765987468e-64
2.084709179e-63
7.473534502e-63
2.656518794e-62
9.363027569e-62
3.272164137e-61
1.133906629e-60
3.896213241e-60
1.327508563e-59
4.484988997e-59
1.502519836e-58
4.991389076e-58
1.6442814e-57
5.371433606e-57
1.740142785e-56
5.591004314e-56
1.781764246e-55
5.632861061e-55
1.766913045e-54
5.500837245e-54
1.700320061e-53
5.220708842e-53
1.593278558e-52
4.836686501e-52
1.461840906e-51
4.403785531e-51
1.323925973e-50
3.977440847e-50
1.195833963e-49
3.603151784e-49
1.089440503e-48
3.308995417e-48
1.01035732e-47
3.10222813e-47
9.577080407e-47
2.97106234e-46
9.253743872e-46
2.890359988e-45
9.041894261e-45
2.829251379e-44
8.843870864e-44
2.758504753e-43
8.576816753e-43
2.655985796e-42
8.185825972e-42
2.509484837e-41
7.648762218e-41
2.316992902e-40
6.973701313e-40
2.085038477e-39
6.191657256e-39
1.825954563e-38
5.347190206e-38
1.554846374e-37
4.489089874e-37
1.286852735e-36
3.662672744e-36
1.035069472e-35
2.904327619e-35
8.091562509e-35
2.23841008e-34
6.148659157e-34
1.677148276e-33
4.542896933e-33
1.222049813e-32
3.264885113e-32
8.663700584e-32
2.283678479e-31
5.980107702e-31
1.555897045e-30
4.022679707e-30
1.033691237e-29
2.640569601e-29
6.707266859e-29
1.694574532e-28
4.259871746e-28
1.065925183e-27
2.656228878e-27
6.595560368e-27
1.632996729e-26
4.034573842e-26
9.956671513e-26
2.456979031e-25
6.071138305e-25
1.504453862e-24
3.74614737e-24
9.391864928e-24
2.376384059e-23
6.079655566e-23
1.575085933e-22
4.130411569e-22
1.09402027e-21
2.910734754e-21
7.72229396e-21
2.023224255e-20
5.189063307e-20
1.294220477e-19
3.145163845e-19
2.579475566e-77
2.429475755e-76
1.526568129e-75
7.975988455e-75
3.767041689e-74
1.678219359e-73
7.223606758e-73
3.042654182e-72
1.262914003e-71
5.181708511e-71
2.105209568e-70
8.47373232e-70
3.380665427e-69
1.33686634e-68
5.240909229e-68
2.036796799e-67
7.847937047e-67
2.997830031e-66
1.135368643e-65
4.263172509e-65
1.587158595e-64
5.858552232e-64
2.144181378e-63
7.780865013e-63
2.799646117e-62
9.988105144e-62
3.53327774e-61
1.239321519e-60
4.310313303e-60
1.486448603e-59
5.082900053e-59
1.723422069e-58
5.794208676e-58
1.931640274e-57
6.385507495e-57
2.093184614e-56
6.804322392e-56
2.193607269e-55
7.01420394e-55
2.224908318e-54
7.002576022e-54
2.187498852e-53
6.78514717e-53
2.090844748e-52
6.405136309e-52
1.952274953e-51
5.926499751e-51
1.793980211e-50
5.422147693e-50
1.638658302e-49
4.959285646e-49
1.505187957e-48
4.587300375e-48
1.405227326e-47
4.329291368e-47
1.341615233e-46
4.180604259e-46
1.308967315e-45
4.11373359e-45
1.296017027e-44
4.087554827e-44
1.288876416e-43
4.057957169e-43
1.274275997e-42
3.9870977e-42
1.242035481e-41
3.849512833e-41
1.186425762e-40
3.6345956e-40
1.106397305e-39
3.345782792e-39
1.004927598e-38
2.997519221e-38
8.878415971e-38
2.61110433e-37
7.624424409e-37
2.210401197e-36
6.362249609e-36
1.8181426e-35
5.158553327e-35
1.453164892e-34
4.064398904e-34
1.128712571e-33
3.112362535e-33
8.521862448e-33
2.317059875e-32
6.25638221e-32
1.677727604e-31
4.468542108e-31
1.182214706e-30
3.107133835e-30
8.113577396e-30
2.105324781e-29
5.429484896e-29
1.391945139e-28
3.548296214e-28
8.996596389e-28
2.269610656e-27
5.699189726e-27
1.425208959e-26
3.551298398e-26
8.823510569e-26
2.187636926e-25
5.41777797e-25
1.341695018e-24
3.327368019e-24
8.276351253e-24
2.068992436e-23
5.208993981e-23
1.324062819e-22
3.404415065e-22
8.868360326e-22
2.339077711e-21
6.232036283e-21
1.667056888e-20
4.441932542e-20
1.166476172e-19
2.990480779e-19
7.427748074e-19
1.789444527e-18
9.548392364e-77
8.8487626e-76
5.482106409e-75
2.834835248e-74
1.330628928e-73
5.91263145e-73
2.545206755e-72
1.073992649e-71
4.470273266e-71
1.840195132e-70
7.502835434e-70
3.03101181e-69
1.213720366e-68
4.817395218e-68
1.895592515e-67
7.394301274e-67
2.859648178e-66
1.096405542e-65
4.167823413e-65
1.570770237e-64
5.869594841e-64
2.1746293e-63
7.988471991e-63
2.90961821e-62
1.05079069e-61
3.762690853e-61
1.335957412e-60
4.703199733e-60
1.641750385e-59
5.6823675e-59
1.950127235e-58
6.635957448e-58
2.239001454e-57
7.49070765e-57
2.484916534e-56
8.173889282e-56
2.666229345e-55
8.624854865e-55
2.767227659e-54
8.807489641e-54
2.781513117e-53
8.719214963e-53
2.714161255e-52
8.394749915e-52
2.58175288e-51
7.902249679e-51
2.409874442e-50
7.331502108e-50
2.228228177e-49
6.775726405e-49
2.06466999e-48
6.31353309e-48
1.939788833e-47
5.993500276e-47
1.863132866e-46
5.82675022e-46
1.832338398e-45
5.788758385e-45
1.835033308e-44
5.828929001e-44
1.852712264e-43
5.884530109e-43
1.865349107e-42
5.894933306e-42
1.855518235e-41
5.812819988e-41
1.81123907e-40
5.610736112e-40
1.727245749e-39
5.282656305e-39
1.604793827e-38
4.841545214e-38
1.450423685e-37
4.314345673e-37
1.274144308e-36
3.735848358e-36
1.087470527e-35
3.142683621e-35
9.016610907e-35
2.56833499e-34
7.263254366e-34
2.039345289e-33
5.685156458e-33
1.573624968e-32
4.324995246e-32
1.180366681e-31
3.199045382e-31
8.610434759e-31
2.301787344e-30
6.111962014e-30
1.612198305e-29
4.22507348e-29
1.100255309e-28
2.847568866e-28
7.326007574e-28
1.874055495e-27
4.768095298e-27
1.207000923e-26
3.041184285e-26
7.630686624e-26
1.907690585e-25
4.755291771e-25
1.182782709e-24
2.938507681e-24
7.299987097e-24
1.816063887e-23
4.531540247e-23
1.136545294e-22
2.871280204e-22
7.325612598e-22
1.891189607e-21
4.948403023e-21
1.31132524e-20
3.510515141e-20
9.430822963e-20
2.520923687e-19
6.627487512e-19
1.696162579e-18
4.189025041e-18
9.986650672e-18
3.519338317e-76
3.204606044e-75
1.956058844e-74
1.000964233e-73
4.670572012e-73
2.070822726e-72
8.918333049e-72
3.771050775e-71
1.574285703e-70
6.502648678e-70
2.660834309e-69
1.078897931e-68
4.336379577e-68
1.727585842e-67
6.823287696e-67
2.671560555e-66
1.037049264e-65
3.9909396e-65
1.522756706e-64
5.760360844e-64
2.160532786e-63
8.034376704e-63
2.962403271e-62
1.082998597e-61
3.925704713e-61
1.410931905e-60
5.028082219e-60
1.776641586e-59
6.224488484e-59
2.162259191e-58
7.447554009e-58
2.543402046e-57
8.612214168e-57
2.891482785e-56
9.625653421e-56
3.17727363e-55
1.039966431e-54
3.375677089e-54
1.08677015e-53
3.47082406e-53
1.099927139e-52
3.460123482e-52
1.08100824e-51
3.356227661e-51
1.03635668e-50
3.185886265e-50
9.761806001e-50
2.985305215e-49
9.125512281e-49
2.792695973e-48
8.569772003e-48
2.640676422e-47
8.180205964e-47
2.549454373e-46
7.996249105e-46
2.523382809e-45
8.006373557e-45
2.551405189e-44
8.155309008e-44
2.610922043e-43
8.360147642e-43
2.673695346e-42
8.530200088e-42
2.712062216e-41
8.58522527e-41
2.703988485e-40
8.468599259e-40
2.636200023e-39
8.153730028e-39
2.505144617e-38
7.644054564e-38
2.316155053e-37
6.96819087e-37
2.081373089e-36
6.172150159e-36
1.817049358e-35
5.310486798e-35
1.540774128e-34
4.437999229e-34
1.26907073e-33
3.602810901e-33
1.015462321e-32
2.841619436e-32
7.895204374e-32
2.178086089e-31
5.966538439e-31
1.623046314e-30
4.384594401e-30
1.176391952e-29
3.135005738e-29
8.299176056e-29
2.182714953e-28
5.704126817e-28
1.481455172e-27
3.824587706e-27
9.817144546e-27
2.506186419e-26
6.36529911e-26
1.609052629e-25
4.050200849e-25
1.015713084e-24
2.539514411e-24
6.334985697e-24
1.5783012e-23
3.931552094e-23
9.806538554e-23
2.453290076e-22
6.168907621e-22
1.562581785e-21
3.997865926e-21
1.035228434e-20
2.717798371e-20
7.227773135e-20
1.941906588e-19
5.233014655e-19
1.401645191e-18
3.684432808e-18
9.400511782e-18
2.304717439e-17
5.42664728e-17
1.284714461e-75
1.147779557e-74
6.897801366e-74
3.49289935e-73
1.620695863e-72
7.173187252e-72
3.091803872e-71
1.310394456e-70
5.487522111e-70
2.274549145e-69
9.341279261e-69
3.801709773e-68
1.533723821e-67
6.133135342e-67
2.431425437e-66
9.555530829e-66
3.723156715e-65
1.438160659e-64
5.507857036e-64
2.091317902e-63
7.873153375e-63
2.938702481e-62
1.087581315e-61
3.990772104e-61
1.451962675e-60
5.237796211e-60
1.873462533e-59
6.64410285e-59
2.336291039e-58
8.145339653e-58
2.81568054e-57
9.650314448e-57
3.279366645e-56
1.104908782e-55
3.691081343e-55
1.222599451e-54
4.015552964e-54
1.307907644e-53
4.225163385e-53
1.354053612e-52
4.306100558e-52
1.35945174e-51
4.262926926e-51
1.328667343e-50
4.119746439e-50
1.272139251e-49
3.916987182e-49
1.204324102e-48
3.703330843e-48
1.140797335e-47
3.525962939e-47
1.094978057e-46
3.420228097e-46
1.075218839e-45
3.402337263e-45
1.083222148e-44
3.466890347e-44
1.114085476e-43
3.589520132e-43
1.15783173e-42
3.733477328e-42
1.201874588e-41
3.858061539e-41
1.233694038e-40
3.926583563e-40
1.243089127e-39
3.912388618e-39
1.223651653e-38
3.802031121e-38
1.17331656e-37
3.595691577e-37
1.094117098e-36
3.305380202e-36
9.913551863e-36
2.951688561e-35
8.724395907e-35
2.559882004e-34
7.456342429e-34
2.156061587e-33
6.189176901e-33
1.763797288e-32
4.990211717e-32
1.40170775e-31
3.909130495e-31
1.082445648e-30
2.976163523e-30
8.125637345e-30
2.203112515e-29
5.93236917e-29
1.586612391e-28
4.215126901e-28
1.112504173e-27
2.917475885e-27
7.603312716e-27
1.969590184e-26
5.07260369e-26
1.29923477e-25
3.31047745e-25
8.394661698e-25
2.11946957e-24
5.330756666e-24
1.336524847e-23
3.342835814e-23
8.348923684e-23
2.084496761e-22
5.21045963e-22
1.306070603e-21
3.290296535e-21
8.349387719e-21
2.140134244e-20
5.552626601e-20
1.460890612e-19
3.894091382e-19
1.04867653e-18
2.831139857e-18
7.58892464e-18
1.991985744e-17
5.059471101e-17
1.229222767e-16
2.852588526e-16
4.622799479e-75
4.046276804e-74
2.39265367e-73
1.198995582e-72
5.534394616e-72
2.446352882e-71
1.055683267e-70
4.48574289e-70
1.884575984e-69
7.839163874e-69
3.231268317e-68
1.319952472e-67
5.344986876e-67
2.145376077e-66
8.536967407e-66
3.367578374e-65
1.317023629e-64
5.106312411e-64
1.9629057e-63
7.480866511e-63
2.826794985e-62
1.059041017e-61
3.933945734e-61
1.448871732e-60
5.290923689e-60
1.915680677e-59
6.877217467e-59
2.447882787e-58
8.638932754e-58
3.022821543e-57
1.048689227e-56
3.607062116e-56
1.230101672e-55
4.15911974e-55
1.394249315e-54
4.634172334e-54
1.527307028e-53
4.991683492e-53
1.618098285e-52
5.203556855e-52
1.660641594e-51
5.261669323e-51
1.656140702e-50
5.182297847e-50
1.613665294e-49
5.005735074e-49
1.549033058e-48
4.789061098e-48
1.481662788e-47
4.594967776e-47
1.430652027e-46
4.478008154e-46
1.410428943e-45
4.47235536e-45
1.427606144e-44
4.584681504e-44
1.479759409e-43
4.793732923e-43
1.55634827e-42
5.056225603e-42
1.641350434e-41
5.316934744e-41
1.716767817e-40
5.519986939e-40
1.766053019e-39
5.618760071e-39
1.776802961e-38
5.582645128e-38
1.742297121e-37
5.400034653e-37
1.661873456e-36
5.077850973e-36
1.540317394e-35
4.638388362e-35
1.386555154e-34
4.114463229e-34
1.211974368e-33
3.543896397e-33
1.028691524e-32
2.964236684e-32
8.479546793e-32
2.408106048e-31
6.789470463e-31
1.900508089e-30
5.281972464e-30
1.457593659e-29
3.994069383e-29
1.086830082e-28
2.937024903e-28
7.883000896e-28
2.101640687e-27
5.566226211e-27
1.46473988e-26
3.830278205e-26
9.955312351e-26
2.572377129e-25
6.609738924e-25
1.689436374e-24
4.296978109e-24
1.088028941e-23
2.744039281e-23
6.897468984e-23
1.729225604e-22
4.328048486e-22
1.082634097e-21
2.710587707e-21
6.803795264e-21
1.715993693e-20
4.358633288e-20
1.11815894e-19
2.903461376e-19
7.645806377e-19
2.039992223e-18
5.498903088e-18
1.485250237e-17
3.978944369e-17
1.04145558e-16
2.629234215e-16
6.318084257e-16
1.441729779e-15
1.632340109e-74
1.397659336e-73
8.1274378e-73
4.031082649e-72
1.851887099e-71
8.179182217e-71
3.534976521e-70
1.506203392e-69
6.349023618e-69
2.650419429e-68
1.096505134e-67
4.495774296e-67
1.827282676e-66
7.361674596e-66
2.940291508e-65
1.164171391e-64
4.569869656e-64
1.778391331e-63
6.861635769e-63
2.624742617e-62
9.954830113e-62
3.743300546e-61
1.39562901e-60
5.159028168e-60
1.890870902e-59
6.871333307e-59
2.475781954e-58
8.844329905e-58
3.132571656e-57
1.100047365e-56
3.829954231e-56
1.322017916e-55
4.524302397e-55
1.535055965e-54
5.163742492e-54
1.722218819e-53
5.695450062e-53
1.867809212e-52
6.075464843e-52
1.960556619e-51
6.278968419e-51
1.996712583e-50
6.308659705e-50
1.982006837e-49
6.198273536e-49
1.93176562e-48
6.00859326e-48
1.868175517e-47
5.816012235e-47
1.81606172e-46
5.696505647e-46
1.797246645e-45
5.708074009e-45
1.825517338e-44
5.877405277e-44
1.903504164e-43
6.19411085e-43
2.022249809e-42
6.613704363e-42
2.163402799e-41
7.067846671e-41
2.303239527e-40
7.478576982e-40
2.417325426e-39
7.7727089e-39
2.484750319e-38
7.893593007e-38
2.491168814e-37
7.808359448e-37
2.430330078e-36
7.510388334e-36
2.304150866e-35
7.017514461e-35
2.121591128e-34
6.367008801e-34
1.896704465e-33
5.608597439e-33
1.646279721e-32
4.7968672e-32
1.387469416e-31
3.983914944e-31
1.135610265e-30
3.213627917e-30
9.028698697e-30
2.518470994e-29
6.975124739e-29
1.918203289e-28
5.23832388e-28
1.42061806e-27
3.826366238e-27
1.023678727e-26
2.720567396e-26
7.183459593e-26
1.884759937e-25
4.914819989e-25
1.274041599e-24
3.283920943e-24
8.419077204e-24
2.147561911e-23
5.452760923e-23
1.378735645e-22
3.473768427e-22
8.727197905e-22
2.188276465e-21
5.482025514e-21
1.374107712e-20
3.451840153e-20
8.709625422e-20
2.212452884e-19
5.674734551e-19
1.472968258e-18
3.877041082e-18
1.033928873e-17
2.785456063e-17
7.515866908e-17
2.009380903e-16
5.236593724e-16
1.311838546e-15
3.111390385e-15
6.963402939e-15
5.631219043e-74
4.709277633e-73
2.691692792e-72
1.321719734e-71
6.04648742e-71
2.669658139e-70
1.155925271e-69
4.939625232e-69
2.08923519e-68
8.752886123e-68
3.634400932e-67
1.495631858e-66
6.101345486e-66
2.467162266e-65
9.890342277e-65
3.930403234e-64
1.548535829e-63
6.0484085e-63
2.342263924e-62
8.99265123e-62
3.423145392e-61
1.291915981e-60
4.834309534e-60
1.79355099e-59
6.597580108e-59
2.406221761e-58
8.701069864e-58
3.119489426e-57
1.108841666e-56
3.907702203e-56
1.365322486e-55
4.72936917e-55
1.624145354e-54
5.529600981e-54
1.866470171e-53
6.246311668e-53
2.072704506e-52
6.820501779e-52
2.226106816e-51
7.208542812e-51
2.316814572e-50
7.394437713e-50
2.345244243e-49
7.398146591e-49
2.323732717e-48
7.276718627e-48
2.275220265e-47
7.114939541e-47
2.229128962e-46
7.008976052e-46
2.215071527e-45
7.044393287e-45
2.255916052e-44
7.2758309e-44
2.362286239e-43
7.713750552e-43
2.529955655e-42
8.321664881e-42
2.740706729e-41
9.023950497e-41
2.966180206e-40
9.721383918e-40
3.173480104e-39
1.030982873e-38
3.331050553e-38
1.06978396e-37
3.413665442e-37
1.081992693e-36
3.405721032e-36
1.064399533e-35
3.302637901e-35
1.017286005e-34
3.110481929e-34
9.4406106e-34
2.84414768e-33
8.505127156e-33
2.524570179e-32
7.438364281e-32
2.175509747e-31
6.316044962e-31
1.820287359e-30
5.2078368e-30
1.47914935e-29
4.170807362e-29
1.167616893e-28
3.245437995e-28
8.957004185e-28
2.454682926e-27
6.680399667e-27
1.805592147e-26
4.847180737e-26
1.292587134e-25
3.424433398e-25
9.014512697e-25
2.358289272e-24
6.132567615e-24
1.58554861e-23
4.076885877e-23
1.04285778e-22
2.654819346e-22
6.7289539e-22
1.699047178e-21
4.27651053e-21
1.07393244e-20
2.693442083e-20
6.755986029e-20
1.697526963e-19
4.281988792e-19
1.086890782e-18
2.78431495e-18
7.215395012e-18
1.895576246e-17
5.044685475e-17
1.356067583e-16
3.649351209e-16
9.721087239e-16
2.51827203e-15
6.248498275e-15
1.459328957e-14
3.193938334e-14
1.889357118e-73
1.540733621e-72
8.652683098e-72
4.208008469e-71
1.918076572e-70
8.470002635e-70
3.675149922e-69
1.575292762e-68
6.685557565e-68
2.810949958e-67
1.171400223e-66
4.838139625e-66
1.980887461e-65
8.039233252e-65
3.23451145e-64
1.290075267e-63
5.101256143e-63
1.999744559e-62
7.772205512e-62
2.994814809e-61
1.144138071e-60
4.333670876e-60
1.627500053e-59
6.059846409e-59
2.237118968e-58
8.188254951e-58
2.971481881e-57
1.069107186e-56
3.813608443e-56
1.348679716e-55
4.728608657e-55
1.64362401e-54
5.663853225e-54
1.934899361e-53
6.553208915e-53
2.200483077e-52
7.32638912e-52
2.418965892e-51
7.921933747e-51
2.574108793e-50
8.302377152e-50
2.659530835e-49
8.46754556e-49
2.682080395e-48
8.461653017e-48
2.662565142e-47
8.369362293e-47
2.632572364e-46
8.301109013e-46
2.62843479e-45
8.369478287e-45
2.682885146e-44
8.662505429e-44
2.817103978e-43
9.221743693e-43
3.035286548e-42
1.003098751e-41
3.323153216e-41
1.101826347e-40
3.650584443e-40
1.20697113e-39
3.977401326e-39
1.305087839e-38
4.260601013e-38
1.38299084e-37
4.461428521e-37
1.429798535e-36
4.550959462e-36
1.438371887e-35
4.513535924e-35
1.406034882e-34
4.347890918e-34
1.334580677e-33
4.066143548e-33
1.229663312e-32
3.691083757e-32
1.099735691e-31
3.252338554e-31
9.547422567e-31
2.782062761e-30
8.047271104e-30
2.310700587e-29
6.586681535e-29
1.863947387e-28
5.236763718e-28
1.460746064e-27
4.045684657e-27
1.112604169e-26
3.038441755e-26
8.240568316e-26
2.219728882e-25
5.939169719e-25
1.578661553e-24
4.1691955e-24
1.094176051e-23
2.854146133e-23
7.401378379e-23
1.908557282e-22
4.89527706e-22
1.249333361e-21
3.17380676e-21
8.029791152e-21
2.024459062e-20
5.090310956e-20
1.277691241e-19
3.205749914e-19
8.052469827e-19
2.029312879e-18
5.142695483e-18
1.314397926e-17
3.396308878e-17
8.892110505e-17
2.357589069e-16
6.31210241e-16
1.691143692e-15
4.480424671e-15
1.151657494e-14
2.824510532e-14
6.478772942e-14
1.382112688e-13
6.135804157e-73
4.871112989e-72
2.687129266e-71
1.29492683e-70
5.884824372e-70
2.600252989e-69
1.130904794e-68
4.862642449e-68
2.070770484e-67
8.737456507e-67
3.654142551e-66
1.51466498e-65
6.2237644e-65
2.534932176e-64
1.023565408e-63
4.097114219e-63
1.625896632e-62
6.396513905e-62
2.494956895e-61
9.648011256e-61
3.699064559e-60
1.406089383e-59
5.299287002e-59
1.980131225e-58
7.335879598e-58
2.694511398e-57
9.812517468e-57
3.542745198e-56
1.268113365e-55
4.500141334e-55
1.583199239e-54
5.521787633e-54
1.909200806e-53
6.544119708e-53
2.223780361e-52
7.491956197e-52
2.502677462e-51
8.290621719e-51
2.724235413e-50
8.882233145e-50
2.874889744e-49
9.242916535e-49
2.954155193e-48
9.395828442e-48
2.977511829e-47
9.414878588e-47
2.975334216e-46
9.414331743e-46
2.987851049e-45
9.527384566e-45
3.056598053e-44
9.875588698e-44
3.214501868e-43
1.05388584e-42
3.477455712e-42
1.153405624e-41
3.839659905e-41
1.280783556e-40
4.273845757e-40
1.424493193e-39
4.736042663e-39
1.568874682e-38
5.173334243e-38
1.696824595e-37
5.532652168e-37
1.792525593e-36
5.768819347e-36
1.843700337e-35
5.850559953e-35
1.843115969e-34
5.763912912e-34
1.789228e-33
5.512910076e-33
1.685984074e-32
5.117750301e-32
1.541905156e-31
4.61097461e-31
1.36864671e-30
4.032392377e-30
1.179275392e-29
3.423415925e-29
9.865262766e-29
2.822128438e-28
8.014562992e-28
2.259622182e-27
6.325054208e-27
1.75787323e-26
4.850992916e-26
1.329299083e-25
3.617401922e-25
9.776685105e-25
2.624529674e-24
6.998868406e-24
1.854295217e-23
4.881700185e-23
1.277260396e-22
3.321913329e-22
8.590024673e-22
2.209059096e-21
5.651433665e-21
1.438802371e-20
3.646956917e-20
9.208342174e-20
2.317772176e-19
5.820814114e-19
1.460345175e-18
3.665435867e-18
9.223012207e-18
2.331699187e-17
5.939734789e-17
1.528367939e-16
3.981634064e-16
1.049824099e-15
2.794015458e-15
7.437837634e-15
1.955947495e-14
4.978622906e-14
1.204141366e-13
2.70492182e-13
5.603911718e-13
1.918795184e-72
1.480457134e-71
8.021248178e-71
3.832677916e-70
1.737701399e-69
7.686106907e-69
3.351323229e-68
1.445584929e-67
6.17695202e-67
2.615421937e-66
1.097641446e-65
4.565828928e-65
1.882692684e-64
7.695206824e-64
3.118122314e-63
1.252509456e-62
4.987893651e-62
1.969200344e-61
7.707760603e-61
2.991032776e-60
1.150772736e-59
4.389580731e-59
1.660104747e-58
6.224674304e-58
2.31405673e-57
8.528956406e-57
3.116615916e-56
1.129074521e-55
4.055240839e-55
1.443940865e-54
5.096971279e-54
1.783594691e-53
6.187280338e-53
2.127762843e-52
7.25404637e-52
2.451859921e-51
8.217074887e-51
2.730978041e-50
9.003484938e-50
2.945452406e-49
9.566658779e-49
3.086907851e-48
9.904101004e-48
3.163043598e-47
1.006849903e-46
3.199284054e-46