/*--------------------------------*- C++ -*----------------------------------*\
  =========                 |
  \\      /  F ield         | OpenFOAM: The Open Source CFD Toolbox
   \\    /   O peration     | Website:  https://openfoam.org
    \\  /    A nd           | Version:  7
     \\/     M anipulation  |
\*---------------------------------------------------------------------------*/
FoamFile
{
    version     2.0;
    format      ascii;
    class       volScalarField;
    location    "0.361";
    object      Y_CH3O;
}
// * * * * * * * * * * * * * * * * * * * * * * * * * * * * * * * * * * * * * //

dimensions      [0 0 0 0 0 0 0];

internalField   nonuniform List<scalar> 
35870
(
6.71704944e-94
5.917113465e-93
3.632642937e-92
1.896589466e-91
9.062081443e-91
4.112344901e-90
1.809038698e-89
7.799565919e-89
3.314681132e-88
1.392233114e-87
5.786456429e-87
2.38078985e-86
9.698498678e-86
3.91148888e-85
1.56176084e-84
6.172696622e-84
2.414878957e-83
9.350555678e-83
3.583300536e-82
1.358980218e-81
5.100677807e-81
1.89466544e-80
6.965505079e-80
2.534675271e-79
9.130526842e-79
3.256406571e-78
1.15009805e-77
4.023281177e-77
1.394399044e-76
4.789349275e-76
1.630728083e-75
5.506055143e-75
1.844150725e-74
6.12901986e-74
2.021914541e-73
6.62278585e-73
2.154482002e-72
6.962599837e-72
2.235687536e-71
7.133894256e-71
2.262365182e-70
7.130887291e-70
2.233958037e-69
6.955782082e-69
2.152443302e-68
6.619066028e-68
2.022544065e-67
6.140280715e-67
1.851905313e-66
5.548071556e-66
1.650872444e-65
4.878577459e-65
1.431682442e-64
4.172012685e-64
1.207168291e-63
3.468144453e-63
9.892891545e-63
2.801822778e-62
7.878590096e-62
2.199629836e-61
6.097472218e-61
1.678253087e-60
4.586512292e-60
1.244619276e-59
3.353756733e-59
8.973884141e-59
2.384494102e-58
6.292048665e-58
1.648849606e-57
4.291175173e-57
1.109151001e-56
2.847326791e-56
7.259875199e-56
1.838566213e-55
4.624885032e-55
1.155600457e-54
2.868227638e-54
7.071856797e-54
1.732140714e-53
4.214827963e-53
1.018919815e-52
2.447261404e-52
5.840074047e-52
1.384753658e-51
3.262594999e-51
7.638592467e-51
1.77726013e-50
4.109733215e-50
9.446241771e-50
2.158692579e-49
4.907020875e-49
1.110697994e-48
2.509309435e-48
5.6889591e-48
1.309871601e-47
3.139876698e-47
8.187651802e-47
2.45620817e-46
8.762650514e-46
3.642944308e-45
1.673970756e-44
8.119784572e-44
4.052479679e-43
2.061006909e-42
1.06748935e-41
5.653945475e-41
3.078729059e-40
1.730406593e-39
1.00323977e-38
5.959328726e-38
3.579828447e-37
2.139684469e-36
1.250778937e-35
7.038426234e-35
3.758319332e-34
1.882635671e-33
8.767965321e-33
3.779410816e-32
1.509082475e-31
5.644303392e-31
1.153158694e-93
1.009577813e-92
6.16308753e-92
3.204662282e-91
1.527943075e-90
6.930906553e-90
3.051708845e-89
1.318037185e-88
5.61405567e-88
2.363902947e-87
9.850610709e-87
4.063666364e-86
1.659780462e-85
6.711650248e-85
2.686797018e-84
1.064673427e-83
4.175881499e-83
1.621025813e-82
6.227681259e-82
2.36775878e-81
8.908955005e-81
3.317417221e-80
1.222605043e-79
4.459857297e-79
1.610505205e-78
5.758079491e-78
2.038710015e-77
7.149805586e-77
2.484331344e-76
8.555111788e-76
2.920644244e-75
9.888010481e-75
3.320941697e-74
1.106823425e-73
3.661835238e-73
1.20295865e-72
3.925097896e-72
1.272323861e-71
4.098015837e-71
1.311713997e-70
4.172866886e-70
1.319409503e-69
4.146443936e-69
1.295113908e-68
4.020201778e-68
1.240100609e-67
3.800930649e-67
1.157438671e-66
3.501317838e-66
1.052065157e-65
3.139691467e-65
9.305188499e-65
2.738569355e-64
8.003047714e-64
2.32219793e-63
6.690219311e-63
1.913680953e-62
5.434787042e-62
1.532425744e-61
4.29006568e-61
1.192456725e-60
3.290972997e-60
9.018192815e-60
2.453804019e-59
6.629759587e-59
1.778713909e-58
4.738903521e-58
1.253793925e-57
3.294306692e-57
8.596159141e-57
2.227718573e-56
5.733826508e-56
1.465784201e-55
3.721772434e-55
9.386358182e-55
2.351394551e-54
5.851255389e-54
1.446380785e-53
3.551750731e-53
8.664551788e-53
2.099954904e-52
5.056510541e-52
1.209725384e-51
2.875656467e-51
6.792408131e-51
1.594316107e-50
3.719006128e-50
8.622678637e-50
1.987625513e-49
4.557668161e-49
1.040874514e-48
2.374207437e-48
5.443576532e-48
1.272468424e-47
3.121083231e-47
8.431697619e-47
2.651119259e-46
9.919261114e-46
4.275717929e-45
2.008604726e-44
9.850851905e-44
4.930126908e-43
2.495824183e-42
1.276975442e-41
6.626152825e-41
3.507847951e-40
1.906786762e-39
1.069661202e-38
6.196242227e-38
3.685933304e-37
2.22379539e-36
1.338887184e-35
7.90242935e-35
4.497126532e-34
2.429528613e-33
1.230643946e-32
5.785891607e-32
2.51130538e-31
1.00589407e-30
3.757325963e-30
2.780579456e-93
2.413102848e-92
1.46162248e-91
7.55837772e-91
3.593677405e-90
1.629415372e-89
7.183831237e-89
3.110170326e-88
1.32876041e-87
5.613555842e-87
2.34729378e-86
9.716946829e-86
3.982628418e-85
1.616002011e-84
6.491251016e-84
2.58091046e-83
1.015671363e-82
3.955727974e-82
1.524688439e-81
5.815626104e-81
2.195231078e-80
8.2004751e-80
3.031838094e-79
1.109479492e-78
4.019216086e-78
1.441595107e-77
5.120566476e-77
1.80163899e-76
6.280769349e-76
2.170106403e-75
7.433820775e-75
2.525509331e-74
8.512139291e-74
2.847243685e-73
9.454647414e-73
3.117650054e-72
1.02113879e-71
3.322869724e-71
1.074459206e-70
3.452789391e-70
1.102779097e-69
3.500735696e-69
1.104532388e-68
3.463584192e-68
1.079365801e-67
3.34245149e-67
1.028412373e-66
3.143579972e-66
9.545230498e-66
2.878756059e-65
8.622556153e-65
2.564729075e-64
7.575111953e-64
2.221533906e-63
6.468652991e-63
1.87007284e-62
5.367589146e-62
1.529583738e-61
4.327547491e-61
1.215597398e-60
3.390193343e-60
9.387618862e-60
2.581033853e-59
7.046138879e-59
1.910031509e-58
5.141320095e-58
1.374252594e-57
3.647785756e-57
9.615588585e-57
2.517207922e-56
6.544429334e-56
1.689844525e-55
4.333680096e-55
1.10386273e-54
2.792766625e-54
7.018255042e-54
1.751913769e-53
4.344105924e-53
1.07006144e-52
2.618518148e-52
6.365866675e-52
1.537558866e-51
3.689750981e-51
8.797821468e-51
2.08446044e-50
4.907867051e-50
1.148527788e-49
2.67224332e-49
6.185746055e-49
1.426803602e-48
3.291195162e-48
7.654800406e-48
1.827726884e-47
4.640332536e-47
1.322337277e-46
4.446936614e-46
1.771976081e-45
7.989722354e-45
3.856954868e-44
1.920601852e-43
9.683455075e-43
4.908446101e-42
2.49885116e-41
1.281064071e-40
6.645765583e-40
3.511823609e-39
1.903343669e-38
1.064270963e-37
6.15036221e-37
3.658119253e-36
2.213344289e-35
1.340688791e-34
7.982492461e-34
4.591312841e-33
2.508624259e-32
1.284671614e-31
6.096395077e-31
2.664175815e-30
1.070117565e-29
3.989152934e-29
7.563146466e-93
6.499484186e-92
3.903807263e-91
2.007286654e-90
9.517691539e-90
4.314254458e-89
1.904905511e-88
8.267955005e-88
3.543282511e-87
1.501935501e-86
6.302054937e-86
2.617894536e-85
1.076704704e-84
4.383871707e-84
1.76693337e-83
7.048912847e-83
2.783204693e-82
1.087536843e-81
4.205437287e-81
1.609256304e-80
6.093938707e-80
2.28369076e-79
8.46994585e-79
3.10934121e-78
1.129972712e-77
4.065870788e-77
1.448849035e-76
5.114256752e-76
1.788779012e-75
6.201214848e-75
2.13150463e-74
7.266586608e-74
2.457866582e-73
8.251131258e-73
2.750010605e-72
9.102184886e-72
2.992669143e-71
9.776091679e-71
3.173493446e-70
1.023824995e-69
3.282908294e-69
1.046273004e-68
3.31417301e-68
1.043335982e-67
3.264039786e-67
1.014667225e-66
3.133852793e-66
9.615418788e-66
2.930498286e-65
8.870545541e-65
2.666561728e-64
7.959908362e-64
2.359330655e-63
6.943359808e-63
2.028770782e-62
5.885279545e-62
1.69498497e-61
4.846495248e-61
1.375800471e-60
3.877524695e-60
1.085009134e-59
3.014407879e-59
8.315183982e-59
2.277483141e-58
6.19390709e-58
1.672682047e-57
4.48553554e-57
1.194484057e-56
3.158816656e-56
8.29581876e-56
2.163702663e-55
5.604696631e-55
1.441901706e-54
3.684352511e-54
9.350652348e-54
2.357173026e-53
5.902337838e-53
1.468097462e-52
3.627444787e-52
8.903896461e-52
2.171248683e-51
5.260262174e-51
1.266178731e-50
3.028311464e-50
7.19726252e-50
1.700098727e-49
3.992861376e-49
9.331758686e-49
2.174510852e-48
5.07530947e-48
1.198952186e-47
2.931733151e-47
7.737538147e-47
2.335248084e-46
8.394944633e-46
3.543229212e-45
1.661805585e-44
8.220256028e-44
4.155320814e-43
2.114643574e-42
1.077130899e-41
5.48622122e-41
2.798645907e-40
1.435112954e-39
7.435837752e-39
3.91926705e-38
2.116284225e-37
1.178312135e-36
6.784325682e-36
4.028559446e-35
2.44077371e-34
1.485384761e-33
8.911639354e-33
5.176352048e-32
2.85879264e-31
1.479499199e-30
7.084579536e-30
3.11662415e-29
1.25484034e-28
4.664610522e-28
2.16467943e-92
1.840167635e-91
1.09544741e-90
5.600041675e-90
2.648359473e-89
1.200372182e-88
5.308813757e-88
2.310267876e-87
9.931926154e-87
4.224106601e-86
1.778521731e-85
7.413513123e-85
3.059553339e-84
1.249950264e-83
5.054927598e-83
2.023292329e-82
8.015098877e-82
3.142088137e-81
1.218943406e-80
4.679316493e-80
1.777588082e-79
6.682489986e-79
2.486258688e-78
9.155830623e-78
3.337835487e-77
1.20482868e-76
4.307068074e-76
1.525259467e-75
5.352304749e-75
1.861690485e-74
6.420823491e-74
2.196534189e-73
7.455896921e-73
2.51200375e-72
8.403049486e-72
2.791723821e-71
9.213725205e-71
3.021431919e-70
9.846288003e-70
3.189031794e-69
1.026585727e-68
3.284613808e-68
1.044507511e-67
3.30101333e-67
1.036695047e-66
3.23500146e-66
1.002918038e-65
3.088663604e-65
9.447971898e-65
2.870262449e-64
8.659191635e-64
2.593998293e-63
7.715592771e-63
2.27852394e-62
6.680463023e-62
1.944545675e-61
5.619318727e-61
1.612140811e-60
4.591765825e-60
1.298436148e-59
3.645310618e-59
1.016090042e-58
2.812064978e-58
7.727276312e-58
2.108377304e-57
5.712207929e-57
1.536761301e-56
4.105522285e-56
1.089187754e-55
2.869604736e-55
7.508255173e-55
1.951040229e-54
5.035196733e-54
1.290632579e-53
3.285776485e-53
8.308761051e-53
2.086948368e-52
5.206905347e-52
1.290498578e-51
3.177342215e-51
7.771716643e-51
1.888589651e-50
4.559897582e-50
1.09399847e-49
2.608636573e-49
6.185036006e-49
1.459670769e-48
3.437296728e-48
8.123289578e-48
1.952092242e-47
4.90350471e-47
1.351587307e-46
4.335354254e-46
1.663381288e-45
7.397166846e-45
3.59248922e-44
1.81709808e-43
9.323944667e-43
4.795558283e-42
2.461019765e-41
1.258891972e-40
6.425563919e-40
3.28020554e-39
1.681254642e-38
8.696102592e-38
4.569553368e-37
2.456764847e-36
1.36088545e-35
7.797201486e-35
4.615681858e-34
2.796039069e-33
1.707135382e-32
1.030808529e-31
6.041331857e-31
3.370479291e-30
1.7621087e-29
8.511893306e-29
3.768772955e-28
1.520474006e-27
5.631356035e-27
6.348102379e-92
5.332388621e-91
3.144487949e-90
1.59803844e-89
7.538727125e-89
3.417367331e-88
1.514119311e-87
6.607087351e-87
2.84947577e-86
1.215982915e-85
5.1373799e-85
2.148791326e-84
8.898329377e-84
3.647598184e-83
1.480059199e-82
5.943671514e-82
2.362233136e-81
9.290387203e-81
3.615665427e-80
1.392399291e-79
5.306165272e-79
2.001009309e-78
7.468195346e-78
2.75883406e-77
1.008918347e-76
3.653320449e-76
1.310173007e-75
4.654700865e-75
1.638744495e-74
5.719060668e-74
1.979167861e-73
6.794137516e-73
2.314365351e-72
7.825626408e-72
2.627439986e-71
8.761798851e-71
2.902723307e-70
9.555488056e-70
3.126060196e-69
1.016430699e-68
3.284822943e-68
1.055108079e-67
3.368318015e-67
1.068627152e-66
3.368932268e-66
1.055261853e-65
3.283795453e-65
1.015045801e-64
3.116285848e-64
9.501315433e-64
2.876627682e-63
8.647732125e-63
2.581140769e-62
7.64876109e-62
2.250225707e-61
6.572160542e-61
1.905610322e-60
5.4853582e-60
1.567565066e-59
4.447370927e-59
1.252702506e-58
3.503244611e-58
9.727091321e-58
2.681625468e-57
7.34055317e-57
1.995206907e-56
5.385033912e-56
1.44325492e-55
3.841177535e-55
1.015231275e-54
2.664755671e-54
6.946310258e-54
1.798324491e-53
4.623937689e-53
1.180862141e-52
2.995321518e-52
7.546736436e-52
1.888696099e-51
4.695374798e-51
1.159588096e-50
2.845010908e-50
6.934916317e-50
1.67968635e-49
4.043438796e-49
9.679359286e-49
2.3071333e-48
5.492346828e-48
1.315336768e-47
3.221070282e-47
8.339685299e-47
2.411481826e-46
8.238576125e-46
3.363601034e-45
1.567774586e-44
7.854323815e-44
4.055883006e-43
2.112486265e-42
1.099227344e-41
5.69354626e-41
2.933095382e-40
1.503680515e-39
7.683741253e-39
3.923235804e-38
2.009129075e-37
1.037050654e-36
5.430752598e-36
2.905716164e-35
1.600109694e-34
9.112666107e-34
5.370063251e-33
3.247535382e-32
1.986267552e-31
1.205514011e-30
7.121877581e-30
4.011225904e-29
2.117664238e-28
1.031572063e-27
4.595832102e-27
1.857332539e-26
6.847668561e-26
1.882332525e-91
1.56062476e-90
9.111642489e-90
4.603071631e-89
2.166504993e-88
9.824353675e-88
4.361460875e-87
1.908575714e-86
8.257831412e-86
3.535848765e-85
1.498973813e-84
6.291113312e-84
2.614047908e-83
1.075145364e-82
4.377037042e-82
1.763515753e-81
7.031639065e-81
2.774349747e-80
1.083170995e-79
4.184486024e-79
1.599634543e-78
6.051240464e-78
2.265501672e-77
8.395150641e-77
3.079773386e-76
1.118714851e-75
4.02478926e-75
1.434520542e-74
5.066975675e-74
1.774230674e-73
6.160901702e-73
2.122278784e-72
7.255005345e-72
2.462032777e-71
8.296716812e-71
2.777107488e-70
9.235377474e-70
3.051900798e-69
1.002298554e-68
3.271656503e-68
1.061437156e-67
3.422696174e-67
1.096895676e-66
3.493387442e-66
1.105516566e-65
3.475899884e-65
1.085668626e-64
3.368219858e-64
1.037827417e-63
3.175592462e-63
9.648484046e-63
2.910681593e-62
8.717770997e-62
2.592221312e-61
7.652121317e-61
2.242476096e-60
6.523912836e-60
1.884191929e-59
5.40237227e-59
1.537781183e-58
4.345757203e-58
1.219294911e-57
3.396540328e-57
9.394252511e-57
2.579871434e-56
7.034887559e-56
1.904812754e-55
5.121487067e-55
1.367417194e-54
3.625597514e-54
9.546500088e-54
2.49636062e-53
6.483084988e-53
1.672169499e-52
4.283673934e-52
1.089943225e-51
2.754593258e-51
6.915022951e-51
1.724377368e-50
4.271669293e-50
1.051288635e-49
2.570775074e-49
6.248104582e-49
1.510290802e-48
3.636510058e-48
8.755210396e-48
2.126652685e-47
5.317287945e-47
1.423905897e-46
4.335969755e-46
1.578604076e-45
6.830171633e-45
3.320003393e-44
1.710427342e-43
9.006590634e-43
4.762040074e-42
2.508935684e-41
1.313459866e-40
6.827572946e-40
3.525424392e-39
1.810021466e-38
9.256041389e-38
4.725663493e-37
2.417429212e-36
1.244910466e-35
6.494999344e-35
3.457013696e-34
1.891261769e-33
1.069469976e-32
6.265276852e-32
3.776758346e-31
2.31031873e-30
1.40735749e-29
8.371837078e-29
4.757019888e-28
2.534991712e-27
1.244735002e-26
5.577155051e-26
2.25742545e-25
8.275976748e-25
5.597443443e-91
4.575223255e-90
2.643440582e-89
1.327495332e-88
6.235023054e-88
2.829008075e-87
1.258612698e-86
5.523758862e-86
2.397764645e-85
1.030149489e-84
4.382084063e-84
1.845383562e-83
7.693688999e-83
3.17492564e-82
1.29681339e-81
5.241920013e-81
2.096849166e-80
8.299583925e-80
3.250610162e-79
1.259712644e-78
4.83063542e-78
1.833058877e-77
6.88404514e-77
2.558920502e-76
9.416781481e-76
3.431378063e-75
1.238433209e-74
4.428279652e-74
1.569274039e-73
5.513250175e-73
1.92096084e-72
6.640239391e-72
2.278019289e-71
7.758593734e-71
2.624183901e-70
8.816697731e-70
2.94317297e-69
9.76331057e-69
3.218856797e-68
1.054767136e-67
3.435328791e-67
1.112046262e-66
3.577592668e-66
1.143746823e-65
3.633200546e-65
1.146604173e-64
3.594559287e-64
1.119258316e-63
3.461117e-63
1.06281498e-62
3.240525969e-62
9.809748923e-62
2.948222967e-61
8.796404851e-61
2.605442333e-60
7.660968084e-60
2.236203164e-59
6.479891331e-59
1.864059156e-58
5.323486583e-58
1.509342779e-57
4.248608158e-57
1.187367261e-56
3.294699939e-56
9.077201685e-56
2.483168671e-55
6.74514404e-55
1.819363609e-54
4.873078719e-54
1.296150172e-53
3.423635704e-53
8.980749214e-53
2.339607896e-52
6.053298052e-52
1.555510601e-51
3.970086635e-51
1.006441785e-50
2.534296642e-50
6.339158987e-50
1.575245313e-49
3.889318393e-49
9.544497314e-49
2.329863522e-48
5.668116618e-48
1.380698533e-47
3.404787008e-47
8.709299311e-47
2.420216074e-46
7.78350608e-46
3.016472574e-45
1.376558432e-44
6.946471547e-44
3.670990548e-43
1.969511829e-42
1.057246776e-41
5.644110944e-41
2.989738141e-40
1.570565355e-39
8.184000499e-39
4.233376637e-38
2.176134095e-37
1.113460328e-36
5.683445396e-36
2.903746263e-35
1.49159975e-34
7.75125751e-34
4.102855721e-33
2.228730273e-32
1.250207147e-31
7.271331706e-31
4.362600569e-30
2.664721926e-29
1.626663519e-28
9.731393698e-28
5.574583141e-27
2.997194049e-26
1.48261623e-25
6.674111698e-25
2.705574974e-24
9.850716967e-24
1.65940038e-90
1.33559827e-89
7.633048414e-89
3.81063688e-88
1.786501543e-87
8.112523804e-87
3.617514013e-86
1.592392148e-85
6.934984568e-85
2.989525932e-84
1.27600935e-83
5.391648206e-83
2.255378882e-82
9.337959528e-82
3.826615466e-81
1.551779606e-80
6.227232904e-80
2.472623553e-79
9.714689318e-79
3.776480924e-78
1.452663338e-77
5.529390119e-77
2.082975262e-76
7.766750059e-76
2.867044362e-75
1.047998857e-74
3.794379985e-74
1.361127128e-73
4.839288066e-73
1.705830972e-72
5.96378229e-72
2.06867666e-71
7.122021281e-71
2.434426656e-70
8.264269041e-70
2.787008262e-69
9.338813978e-69
3.109804405e-68
1.029220788e-67
3.385629605e-67
1.106946215e-66
3.59708334e-66
1.161655787e-65
3.727872445e-65
1.188633248e-64
3.765132241e-64
1.184678303e-63
3.702139189e-63
1.148910922e-62
3.54043312e-62
1.083241309e-61
3.29050439e-61
9.923054268e-61
2.970694383e-60
8.828579461e-60
2.604593501e-59
7.62791959e-59
2.217654077e-58
6.400450464e-58
1.833859115e-57
5.216404776e-57
1.47312156e-56
4.130289842e-56
1.149767357e-55
3.177896673e-55
8.721327941e-55
2.376572314e-54
6.430687095e-54
1.72788131e-53
4.610338803e-53
1.221592825e-52
3.214454183e-52
8.400165889e-52
2.1801253e-51
5.619553846e-51
1.438679526e-50
3.658356625e-50
9.24043165e-50
2.318588945e-49
5.780394242e-49
1.432397354e-48
3.531436601e-48
8.682146108e-48
2.140651457e-47
5.364255197e-47
1.406529394e-46
4.067728872e-46
1.383785167e-45
5.69389311e-45
2.72690095e-44
1.422963798e-43
7.698702354e-43
4.205956572e-42
2.292778051e-41
1.241030761e-40
6.658098962e-40
3.5389127e-39
1.863918071e-38
9.732884246e-38
5.042738724e-37
2.595072501e-36
1.328467342e-35
6.778743585e-35
3.458627479e-34
1.771924511e-33
9.169923714e-33
4.825853959e-32
2.601894256e-31
1.446600651e-30
8.3422582e-30
4.974411211e-29
3.028940973e-28
1.849774886e-27
1.11136158e-26
6.412897926e-26
3.476246625e-25
1.73155104e-24
7.817670484e-24
3.176630783e-23
1.146618474e-22
4.880915205e-90
3.863617198e-89
2.18326898e-88
1.083661375e-87
5.072504934e-87
2.305884102e-86
1.030739301e-85
4.551047704e-85
1.988536034e-84
8.600952595e-84
3.683468724e-83
1.561611905e-82
6.554003595e-82
2.722442619e-81
1.11924793e-80
4.553342032e-80
1.833032449e-79
7.301196319e-79
2.87749656e-78
1.122052681e-77
4.329369124e-77
1.652976138e-76
6.246019315e-76
2.336102225e-75
8.650241888e-75
3.171814775e-74
1.152013218e-73
4.14577022e-73
1.478775288e-72
5.229955453e-72
1.834656201e-71
6.385974537e-71
2.206333643e-70
7.568812906e-70
2.578854844e-69
8.729247877e-69
2.936072415e-68
9.814307531e-68
3.260589785e-67
1.076692551e-66
3.533796103e-66
1.152712648e-65
3.736733289e-65
1.203662311e-64
3.852146395e-64
1.224692613e-63
3.867399738e-63
1.212894265e-62
3.777361626e-62
1.168078759e-61
3.586224104e-61
1.093089547e-60
3.307546577e-60
9.935137124e-60
2.96245346e-59
8.768724199e-59
2.576501909e-58
7.515177119e-58
2.176060411e-57
6.255123351e-57
1.785030332e-56
5.057226693e-56
1.422489597e-55
3.972541982e-55
1.10149713e-54
3.032538299e-54
8.289906915e-54
2.250223555e-53
6.065218723e-53
1.623394936e-52
4.314903318e-52
1.138936647e-51
2.985537506e-51
7.772369793e-51
2.009588665e-50
5.16061419e-50
1.31631846e-49
3.335251517e-49
8.396391523e-49
2.101125805e-48
5.232271675e-48
1.300192076e-47
3.246012075e-47
8.272996024e-47
2.227365144e-46
6.718124977e-46
2.417584516e-45
1.052227435e-44
5.262658116e-44
2.830384254e-43
1.565390717e-42
8.705354744e-42
4.82025827e-41
2.646986504e-40
1.439474152e-39
7.749500051e-39
4.130628591e-38
2.180758394e-37
1.141015234e-36
5.921159484e-36
3.050468664e-35
1.562319542e-34
7.969161596e-34
4.060186706e-33
2.074396517e-32
1.068939304e-31
5.592326114e-31
2.991816539e-30
1.647372361e-29
9.407654708e-29
5.567760928e-28
3.374519978e-27
2.058049186e-26
1.239871128e-25
7.197918576e-25
3.927948579e-24
1.970773234e-23
8.899161264e-23
3.645063592e-22
1.333564126e-21
1.418448868e-89
1.102869455e-88
6.159967914e-88
3.040400462e-87
1.421405154e-86
6.469938108e-86
2.899494732e-85
1.284180637e-84
5.62953028e-84
2.443040072e-83
1.049746478e-82
4.465117552e-82
1.880117659e-81
7.835022326e-81
3.231438427e-80
1.318781038e-79
5.325636704e-79
2.127851424e-78
8.411959424e-78
3.290195259e-77
1.273365939e-76
4.876545408e-76
1.848276204e-75
6.933900376e-75
2.575401624e-74
9.472578694e-74
3.451268521e-73
1.245972475e-72
4.458740175e-72
1.582130422e-71
5.568818737e-71
1.945048421e-70
6.743737858e-70
2.321737507e-69
7.939542729e-69
2.697443383e-68
9.10685263e-68
3.055631552e-67
1.01902616e-66
3.377777038e-66
1.112826956e-65
3.643727376e-65
1.185613643e-64
3.833242389e-64
1.231280262e-63
3.92874892e-63
1.245085619e-62
3.91864756e-62
1.224660877e-61
3.80010448e-61
1.170686449e-60
3.58033734e-60
1.086991657e-59
3.275931334e-59
9.800389144e-59
2.910385937e-58
8.579455117e-58
2.510597704e-57
7.293094479e-57
2.103170976e-56
6.021119538e-56
1.711324407e-55
4.828949804e-55
1.352854462e-54
3.76305149e-54
1.039279539e-53
2.849967891e-53
7.760237471e-53
2.09821281e-52
5.63346496e-52
1.50198447e-51
3.976780719e-51
1.045652698e-50
2.730533463e-50
7.081570357e-50
1.824144596e-49
4.667477009e-49
1.186575865e-48
2.998676225e-48
7.543077605e-48
1.894803689e-47
4.791355755e-47
1.242833786e-46
3.440052071e-46
1.083219986e-45
4.117147824e-45
1.886816903e-44
9.810044806e-44
5.423008615e-43
3.062535117e-42
1.733291349e-41
9.751258691e-41
5.435443974e-40
2.998373723e-39
1.636381152e-38
8.83638625e-38
4.722619735e-37
2.499202297e-36
1.310283192e-35
6.810607768e-35
3.512659018e-34
1.799904532e-33
9.177776404e-33
4.669145133e-32
2.378800388e-31
1.220432534e-30
6.346660784e-30
3.368685595e-29
1.835706958e-28
1.036769857e-27
6.082556028e-27
3.664718435e-26
2.227784398e-25
1.343711695e-24
7.83411975e-24
4.294169153e-23
2.17007583e-22
1.007439672e-21
4.136638156e-21
1.497407078e-20
4.056780286e-89
3.094151342e-88
1.707717222e-87
8.383841955e-87
3.915922214e-86
1.785190903e-85
8.021635581e-85
3.563846186e-84
1.567402628e-83
6.824475317e-83
2.942032846e-82
1.255478436e-81
5.303468766e-81
2.217171153e-80
9.173256981e-80
3.755386592e-79
1.521226785e-78
6.096659773e-78
2.417494728e-77
9.484175703e-77
3.68158888e-76
1.414152507e-75
5.375936812e-75
2.022895421e-74
7.536310519e-74
2.780440546e-73
1.016186838e-72
3.68022558e-72
1.32121826e-71
4.703585069e-71
1.661131412e-70
5.821787053e-70
2.025548013e-69
6.998419627e-69
2.401894209e-68
8.190394954e-68
2.775446024e-67
9.347378544e-67
3.128997604e-66
1.041077044e-65
3.442762838e-65
1.131471759e-64
3.695270548e-64
1.199108053e-63
3.865624856e-63
1.237850743e-62
3.936811589e-62
1.243350499e-61
3.899120231e-61
1.214010667e-60
3.752563729e-60
1.151484177e-59
3.507474349e-59
1.060539119e-58
3.183095406e-58
9.48338675e-58
2.804608961e-57
8.233481442e-57
2.399422237e-56
6.941494778e-56
1.993584486e-55
5.684133019e-55
1.608994636e-54
4.521873901e-54
1.261735484e-53
3.495557878e-53
9.615571004e-53
2.626370629e-52
7.123135943e-52
1.918371784e-51
5.130420985e-51
1.362526339e-50
3.593543857e-50
9.412500233e-50
2.448598579e-49
6.327170599e-49
1.624381043e-48
4.145825957e-48
1.05348387e-47
2.675284681e-47
6.852975622e-47
1.809753568e-46
5.152260306e-46
1.693056192e-45
6.775793711e-45
3.25319802e-44
1.751050672e-43
9.927285932e-43
5.719662734e-42
3.294168922e-41
1.883481709e-40
1.066202187e-39
5.969801165e-39
3.305337012e-38
1.809825172e-37
9.802148021e-37
5.253018994e-36
2.78665233e-35
1.464060202e-34
7.622838963e-34
3.936279786e-33
2.018055173e-32
1.028683577e-31
5.225776313e-31
2.654769907e-30
1.35590366e-29
7.008564927e-29
3.690922445e-28
1.989147999e-27
1.109467108e-26
6.445351699e-26
3.856224138e-25
2.330922913e-24
1.406179919e-23
8.229967025e-23
4.576918449e-22
2.35496758e-21
1.102921639e-20
4.518463918e-20
1.611513863e-19
1.137448003e-88
8.498764471e-88
4.634076238e-87
2.263622913e-86
1.056700989e-85
4.825760857e-85
2.174380898e-84
9.690518491e-84
4.275726922e-83
1.867710439e-82
8.077733169e-82
3.458136855e-81
1.465441245e-80
6.145672664e-80
2.550586285e-79
1.047379109e-78
4.255614102e-78
1.710676702e-77
6.803602927e-77
2.677091509e-76
1.042279385e-75
4.015401925e-75
1.530991592e-74
5.778087142e-74
2.159093754e-73
7.989926568e-73
2.929123058e-72
1.064132513e-71
3.832467826e-71
1.368812182e-70
4.850200487e-70
1.705626427e-69
5.954863424e-69
2.064712029e-68
7.111631184e-68
2.433870758e-67
8.277883743e-67
2.798216382e-66
9.401712303e-66
3.139746312e-65
1.042133228e-64
3.437591164e-64
1.1267753e-63
3.669555153e-63
1.187190401e-62
3.815005499e-62
1.217526046e-61
3.858468785e-61
1.214109665e-60
3.79286285e-60
1.176281173e-59
3.621314637e-59
1.106665748e-58
3.357008024e-58
1.010812321e-57
3.021149383e-57
8.963190076e-57
2.639671094e-56
7.716920736e-56
2.239529734e-55
6.452092383e-55
1.845389176e-54
5.240006307e-54
1.477218409e-53
4.134652991e-53
1.149018478e-52
3.170447001e-52
8.686230695e-52
2.363042264e-51
6.383414163e-51
1.712335031e-50
4.561344843e-50
1.206655972e-49
3.170207735e-49
8.272895545e-49
2.144911188e-48
5.528774266e-48
1.419195043e-47
3.643321665e-47
9.453393467e-47
2.541176209e-46
7.436745402e-46
2.545007373e-45
1.067693199e-44
5.342393122e-44
2.966006127e-43
1.7214043e-42
1.011232082e-41
5.926554666e-41
3.444788399e-40
1.981221305e-39
1.126571599e-38
6.332129316e-38
3.518253192e-37
1.932702755e-36
1.049956064e-35
5.642582583e-35
3.000896618e-34
1.58009774e-33
8.241794626e-33
4.261381492e-32
2.186082994e-31
1.11404695e-30
5.651359051e-30
2.862656013e-29
1.455326939e-28
7.476465508e-28
3.907546679e-27
2.081392999e-26
1.144583969e-25
6.578757783e-25
3.903511525e-24
2.337430093e-23
1.407291892e-22
8.400196021e-22
4.745241439e-21
2.462049663e-20
1.15374366e-19
4.687959423e-19
1.643398315e-18
3.114308582e-88
2.276396517e-87
1.226143996e-86
5.96163292e-86
2.78245014e-85
1.273179685e-84
5.752754048e-84
2.57180228e-83
1.138365186e-82
4.988479456e-82
2.164328249e-81
9.294815771e-81
3.951079524e-80
1.66208416e-79
6.919010639e-79
2.849809913e-78
1.1613643e-77
4.68228792e-77
1.867682517e-76
7.370466185e-76
2.877921708e-75
1.111953303e-74
4.252021996e-74
1.609455438e-73
6.03183065e-73
2.238815722e-72
8.232466488e-72
3.000044243e-71
1.083865954e-70
3.883600444e-70
1.380619147e-69
4.871383047e-69
1.706568501e-68
5.937760411e-68
2.052428968e-67
7.04940457e-67
2.406276275e-66
8.163726431e-66
2.752955081e-65
9.227207527e-65
3.073803001e-64
1.017590966e-63
3.347405096e-63
1.094005497e-62
3.551756474e-62
1.145290323e-61
3.667560235e-61
1.166203091e-60
3.681799125e-60
1.153975328e-59
3.590489096e-59
1.108943373e-58
3.399769185e-58
1.034584429e-57
3.125048582e-57
9.369671721e-57
2.788527167e-56
8.237910436e-56
2.415803724e-55
7.032674159e-55
2.0323858e-54
5.830842964e-54
1.660767413e-53
4.696248314e-53
1.31847015e-52
3.675179435e-52
1.017156099e-51
2.795176616e-51
7.627029999e-51
2.066515931e-50
5.559980013e-50
1.485513994e-49
3.941641782e-49
1.038791935e-48
2.71991311e-48
7.080524364e-48
1.835916772e-47
4.763808689e-47
1.251589976e-46
3.421690048e-46
1.027370621e-45
3.647495137e-45
1.59497178e-44
8.273290344e-44
4.722193549e-43
2.801490655e-42
1.677187378e-41
1.00027093e-40
5.912000003e-40
3.455911167e-39
1.996627453e-38
1.139878903e-37
6.430778992e-37
3.585661434e-36
1.976322094e-35
1.077034682e-34
5.805031719e-34
3.095477699e-33
1.633684391e-32
8.537605811e-32
4.420512331e-31
2.269354714e-30
1.15627766e-29
5.857455113e-29
2.95835524e-28
1.496725364e-27
7.640380563e-27
3.965220325e-26
2.08656044e-25
1.128845221e-24
6.403646403e-24
3.764761433e-23
2.253849803e-22
1.377594653e-21
8.257209682e-21
4.70448023e-20
2.439050854e-19
1.136058257e-18
4.5703522e-18
1.57831e-17
8.292514836e-88
5.921313992e-87
3.15063853e-86
1.525468248e-85
7.120920578e-85
3.265282647e-84
1.47957241e-83
6.634909725e-83
2.946006514e-82
1.295026187e-81
5.636082467e-81
2.427895428e-80
1.035196893e-79
4.367842599e-79
1.823679939e-78
7.533555211e-78
3.079060727e-77
1.244985772e-76
4.980305785e-76
1.971012333e-75
7.718103413e-75
2.990583661e-74
1.14684736e-73
4.353490746e-73
1.636316875e-72
6.091328881e-72
2.246561407e-71
8.211712409e-71
2.975945678e-70
1.069685019e-69
3.815020196e-69
1.350538467e-68
4.747214119e-68
1.657391033e-67
5.748850125e-67
1.981503682e-66
6.787837462e-66
2.311140441e-65
7.821531045e-65
2.630965638e-64
8.795606337e-64
2.922109108e-63
9.646066156e-63
3.163467295e-62
1.030553759e-61
3.334325207e-61
1.071312083e-60
3.417760476e-60
1.082529507e-59
3.403873676e-59
1.062464591e-58
3.29186885e-58
1.012383021e-57
3.090402571e-57
9.363803816e-57
2.816178064e-56
8.407085452e-56
2.491252644e-55
7.328046168e-55
2.139778697e-54
6.202580429e-54
1.784890453e-53
5.099164165e-53
1.446262228e-52
4.072562958e-52
1.1386051e-51
3.160637786e-51
8.711329423e-51
2.384045841e-50
6.478568115e-50
1.748217241e-49
4.684805916e-49
1.246874973e-48
3.296991799e-48
8.667638155e-48
2.269931501e-47
5.951573782e-47
1.582116862e-46
4.391571586e-46
1.348195193e-45
4.937386349e-45
2.23516375e-44
1.195505007e-43
6.994544159e-43
4.236352454e-42
2.58372042e-41
1.568132029e-40
9.426590537e-40
5.602525703e-39
3.290016782e-38
1.908657161e-37
1.093916623e-36
6.194612904e-36
3.466423511e-35
1.91718376e-34
1.048213292e-33
5.666871237e-33
3.030181702e-32
1.603133971e-31
8.3950149e-31
4.353305214e-30
2.236722777e-29
1.139546669e-28
5.764894988e-28
2.902924951e-27
1.46106174e-26
7.405852963e-26
3.82022625e-25
1.985239793e-24
1.054641654e-23
5.937913581e-23
3.47638575e-22
2.084849869e-21
1.274427093e-20
7.642671881e-20
4.342747707e-19
2.258934564e-18
1.051424397e-17
4.165826926e-17
1.395076549e-16
2.137875938e-87
1.48913393e-86
7.828122902e-86
3.776308847e-85
1.76369208e-84
8.105671979e-84
3.683278327e-83
1.656717131e-82
7.37851256e-82
3.253403289e-81
1.420183594e-80
6.136171281e-80
2.624056118e-79
1.11042704e-78
4.649734393e-78
1.926309552e-77
7.895455152e-77
3.201459965e-76
1.284265613e-75
5.09681824e-75
2.00137047e-74
7.776450841e-74
2.990494273e-73
1.13840161e-72
4.290986925e-72
1.601954385e-71
5.925487134e-71
2.17235362e-70
7.896576383e-70
2.847180035e-69
1.018661879e-68
3.617791302e-68
1.275871385e-67
4.469412662e-67
1.555557093e-66
5.380184385e-66
1.849454238e-65
6.319105199e-65
2.146049666e-64
7.244000337e-64
2.430167744e-63
8.101439415e-63
2.683468057e-62
8.830252942e-62
2.886197731e-61