/*--------------------------------*- C++ -*----------------------------------*\
  =========                 |
  \\      /  F ield         | OpenFOAM: The Open Source CFD Toolbox
   \\    /   O peration     | Website:  https://openfoam.org
    \\  /    A nd           | Version:  7
     \\/     M anipulation  |
\*---------------------------------------------------------------------------*/
FoamFile
{
    version     2.0;
    format      ascii;
    class       volScalarField;
    location    "0.361";
    object      Y_CO;
}
// * * * * * * * * * * * * * * * * * * * * * * * * * * * * * * * * * * * * * //

dimensions      [0 0 0 0 0 0 0];

internalField   nonuniform List<scalar> 
35870
(
2.571915276e-70
2.309921237e-69
1.439628003e-68
7.573500578e-68
3.622110141e-67
1.636746518e-66
7.144298512e-66
3.050081124e-65
1.282419694e-64
5.328682462e-64
2.192033327e-63
8.933956348e-63
3.609016334e-62
1.445266471e-61
5.738206899e-61
2.258868236e-60
8.81716581e-60
3.41280866e-59
1.309980675e-58
4.986610316e-58
1.882713724e-57
7.050588499e-57
2.619163806e-56
9.652234859e-56
3.529082587e-55
1.280279611e-54
4.608980124e-54
1.646684482e-53
5.839511961e-53
2.055699896e-52
7.184913023e-52
2.49358937e-51
8.594811847e-51
2.942464549e-50
1.000694532e-49
3.381271956e-49
1.135271347e-48
3.787944347e-48
1.256106735e-47
4.139930673e-47
1.356179892e-46
4.415727466e-46
1.429026865e-45
4.596358263e-45
1.469251871e-44
4.667172529e-44
1.473152905e-43
4.619932739e-43
1.439364291e-42
4.454602446e-42
1.36933686e-41
4.180557423e-41
1.267487721e-40
3.815984481e-40
1.140762484e-39
3.38600181e-39
9.97849384e-39
2.919550125e-38
8.48070125e-38
2.445728726e-37
7.002368108e-37
1.990418141e-36
5.617094743e-36
1.573819536e-35
4.37807807e-35
1.209228353e-34
3.316207064e-34
9.030185754e-34
2.44167253e-33
6.555840175e-33
1.747971775e-32
4.628292435e-32
1.217034523e-31
3.178310366e-31
8.24359703e-31
2.123636501e-30
5.43379111e-30
1.381026643e-29
3.486546888e-29
8.743842792e-29
2.178414461e-28
5.391726915e-28
1.325814434e-27
3.239097436e-27
7.862699367e-27
1.896474203e-26
4.545405654e-26
1.082613711e-25
2.562575162e-25
6.028534943e-25
1.409653066e-24
3.276539239e-24
7.571176026e-24
1.739420201e-23
3.973690386e-23
9.028092695e-23
2.040253494e-22
4.587173665e-22
1.026311454e-21
2.285625512e-21
5.068273613e-21
1.119459872e-20
2.463994828e-20
5.407316662e-20
1.183846805e-19
2.587582924e-19
5.651060871e-19
1.23428232e-18
2.698881483e-18
5.914331902e-18
1.300149776e-17
2.86928676e-17
6.35819266e-17
1.414046641e-16
3.151474211e-16
7.021858317e-16
1.559328164e-15
3.441434072e-15
7.541654225e-15
1.649192791e-14
4.596320839e-70
4.100521738e-69
2.539385441e-68
1.329455408e-67
6.340168648e-67
2.862206853e-66
1.250032001e-65
5.34524049e-65
2.252501874e-64
9.384005628e-64
3.871087821e-63
1.582283924e-62
6.410694047e-62
2.574822134e-61
1.025333789e-60
4.048279873e-60
1.584902997e-59
6.152906477e-59
2.368813655e-58
9.044256364e-58
3.424974924e-57
1.286491419e-56
4.793544981e-56
1.771897861e-55
6.498226602e-55
2.364644698e-54
8.538886064e-54
3.060200651e-53
1.088600109e-52
3.84426833e-52
1.34787228e-51
4.692854149e-51
1.622727518e-50
5.573521872e-50
1.901701121e-49
6.446967846e-49
2.171806016e-48
7.270771379e-48
2.419171952e-47
8.000222458e-47
2.629651571e-46
8.59123398e-46
2.789740999e-45
9.003321456e-45
2.887641654e-44
9.20342918e-44
2.914615449e-43
9.17052445e-43
2.866421963e-42
8.899712815e-42
2.744484858e-41
8.405316011e-41
2.556343219e-40
7.720127212e-40
2.314958866e-39
6.892139873e-39
2.037231418e-38
5.978474464e-38
1.741794108e-37
5.0379792e-37
1.446669386e-36
4.124192276e-36
1.167269556e-35
3.280003548e-35
9.150786735e-35
2.534747724e-34
6.971332225e-34
1.903772299e-33
5.162339266e-33
1.390032749e-32
3.716768057e-32
9.869225434e-32
2.602515313e-31
6.815719457e-31
1.772776738e-30
4.579691627e-30
1.1750995e-29
2.99492774e-29
7.582100855e-29
1.906793566e-28
4.763722719e-28
1.182321875e-27
2.915343679e-27
7.142128501e-27
1.738479908e-26
4.204722939e-26
1.01054138e-25
2.413488061e-25
5.72846618e-25
1.351339647e-24
3.168531433e-24
7.385123158e-24
1.711226901e-23
3.942377989e-23
9.031657929e-23
2.057798632e-22
4.663821397e-22
1.051663095e-21
2.360002762e-21
5.272010382e-21
1.172769727e-20
2.598948545e-20
5.740252793e-20
1.264319549e-19
2.778756819e-19
6.098848376e-19
1.33788549e-18
2.936326866e-18
6.454448219e-18
1.422588176e-17
3.14689579e-17
6.991963134e-17
1.56052187e-16
3.49640061e-16
7.849973789e-16
1.761271843e-15
3.935027734e-15
8.725748116e-15
1.917700789e-14
4.195830438e-14
1.167110093e-69
1.031541623e-68
6.33323575e-68
3.294446517e-67
1.565371994e-66
7.058729736e-66
3.085472522e-65
1.322261239e-64
5.58877743e-64
2.336280674e-63
9.672805046e-63
3.968499939e-62
1.613956055e-61
6.507051688e-61
2.601110182e-60
1.030904089e-59
4.051417895e-59
1.578845146e-58
6.10164103e-58
2.338558442e-57
8.889873172e-57
3.352038009e-56
1.253793457e-55
4.652409823e-55
1.712810359e-54
6.256921441e-54
2.268211885e-53
8.160704856e-53
2.914412856e-52
1.033264767e-51
3.637255273e-51
1.271457042e-50
4.414310965e-50
1.52234256e-49
5.215600442e-49
1.775455979e-48
6.005914741e-48
2.019070247e-47
6.746168614e-47
2.240349871e-46
7.394964963e-46
2.426135614e-45
7.911143628e-45
2.563805242e-44
8.256968162e-44
2.642455241e-43
8.402402408e-43
2.654378815e-42
8.329810676e-42
2.59644662e-41
8.038095747e-41
2.471246464e-40
7.544532285e-40
2.287026422e-39
6.883465154e-39
2.05693133e-38
6.102305589e-38
1.797293813e-37
5.255197599e-37
1.52546291e-36
4.396004601e-36
1.257658469e-35
3.572087735e-35
1.00726851e-34
2.819958462e-34
7.838376799e-34
2.163258571e-33
5.927933579e-33
1.612965792e-32
4.358014723e-32
1.169254428e-31
3.115311301e-31
8.2429268e-31
2.166030604e-30
5.652839185e-30
1.465222234e-29
3.772172812e-29
9.64601718e-29
2.450142269e-28
6.182171546e-28
1.549582967e-27
3.858605031e-27
9.545658955e-27
2.346177273e-26
5.72948485e-26
1.390247386e-25
3.352078182e-25
8.031702617e-25
1.912498286e-24
4.526120913e-24
1.064678222e-23
2.489533555e-23
5.787227438e-23
1.337608211e-22
3.074349791e-22
7.027721581e-22
1.598062737e-21
3.615664981e-21
8.141574029e-21
1.825108454e-20
4.074568275e-20
9.063044256e-20
2.009449265e-19
4.443764946e-19
9.808143901e-19
2.162438341e-18
4.766638563e-18
1.051632724e-17
2.324748932e-17
5.155558102e-17
1.148118199e-16
2.56946294e-16
5.778702825e-16
1.304971225e-15
2.952650339e-15
6.672691e-15
1.499959077e-14
3.341101928e-14
7.359840863e-14
1.609539825e-13
3.340712603e-69
2.922212375e-68
1.777652091e-67
9.186099703e-67
4.349148638e-66
1.959316489e-65
8.573561299e-65
3.682753193e-64
1.561401494e-63
6.549803917e-63
2.721731337e-62
1.120833192e-61
4.575579389e-61
1.85174924e-60
7.430283123e-60
2.95603861e-59
1.166128047e-58
4.561672361e-58
1.769612198e-57
6.808169069e-57
2.597950626e-56
9.833275355e-56
3.692090618e-55
1.375258373e-54
5.082537928e-54
1.863812816e-53
6.782701269e-53
2.449807825e-52
8.783149715e-52
3.126194527e-51
1.104829397e-50
3.877507676e-50
1.351625399e-49
4.680156443e-49
1.609981037e-48
5.503100055e-48
1.869254406e-47
6.310164931e-47
2.117153465e-46
7.060244707e-46
2.340176566e-45
7.709615109e-45
2.524383493e-44
8.214662302e-44
2.656447944e-43
8.535900648e-43
2.725143007e-42
8.643170262e-42
2.723031053e-41
8.52089567e-41
2.648059216e-40
8.172223902e-40
2.504309872e-39
7.619761414e-39
2.301843663e-38
6.903547412e-38
2.055496954e-37
6.07575292e-37
1.782859614e-36
5.193579916e-36
1.501935673e-35
4.311970181e-35
1.228987643e-34
3.477572511e-34
9.76951039e-34
2.724892646e-33
7.54604197e-33
2.074895503e-32
5.66493519e-32
1.535784434e-31
4.134446181e-31
1.105278035e-30
2.934325876e-30
7.736478927e-30
2.025780069e-29
5.268307467e-29
1.360805948e-28
3.491280693e-28
8.897243812e-28
2.252309611e-27
5.663956238e-27
1.41497398e-26
3.511819601e-26
8.659452799e-26
2.121504339e-25
5.164339443e-25
1.249186055e-24
3.002667509e-24
7.172724747e-24
1.702904209e-23
4.018478508e-23
9.426266543e-23
2.198220188e-22
5.096951424e-22
1.175221124e-21
2.695081579e-21
6.148247016e-21
1.395592807e-20
3.152891604e-20
7.091573304e-20
1.588612992e-19
3.545944667e-19
7.890495681e-19
1.751500446e-18
3.881094398e-18
8.592457021e-18
1.902433102e-17
4.217278256e-17
9.370971805e-17
2.08990247e-16
4.682602602e-16
1.054889061e-15
2.389017751e-15
5.433747675e-15
1.238064979e-14
2.815838537e-14
6.362877396e-14
1.422303322e-13
3.136862258e-13
6.848480807e-13
1.005233045e-68
8.693277813e-68
5.23692516e-67
2.688009288e-66
1.268224492e-65
5.709324211e-65
2.50145062e-64
1.077160002e-63
4.581380954e-63
1.928530412e-62
8.043233879e-62
3.324599277e-61
1.362296981e-60
5.533982243e-60
2.228924934e-59
8.90082691e-59
3.52451618e-58
1.383912049e-57
5.388839111e-57
2.081063676e-56
7.971237302e-56
3.028542081e-55
1.14143638e-54
4.267866631e-54
1.583287126e-53
5.828267064e-53
2.129146311e-52
7.719846718e-52
2.778501981e-51
9.928206902e-51
3.522545885e-50
1.24117643e-49
4.343797925e-49
1.510142076e-48
5.21598837e-48
1.790169503e-47
6.105712125e-47
2.069653084e-46
6.972738518e-46
2.33489447e-45
7.771265787e-45
2.57079423e-44
8.452284728e-44
2.7617368e-43
8.967152905e-43
2.892996699e-42
9.272908432e-42
2.952630644e-41
9.338562217e-41
2.933492717e-40
9.151258104e-40
2.834838129e-39
8.719536699e-39
2.662855289e-38
8.073606424e-38
2.430163947e-37
7.261708517e-37
2.154116542e-36
6.343411543e-36
1.854384421e-35
5.381495423e-35
1.550380758e-34
4.434187741e-34
1.259042162e-33
3.549182485e-33
9.933235015e-33
2.760202492e-32
7.615408616e-32
2.086229927e-31
5.674960178e-31
1.532887845e-30
4.111688804e-30
1.095236459e-29
2.897269753e-29
7.611654918e-29
1.986068782e-28
5.146961355e-28
1.32484847e-27
3.387342056e-27
8.60298252e-27
2.170467332e-26
5.4398777e-26
1.354487827e-25
3.350661391e-25
8.235240406e-25
2.011104408e-24
4.880112762e-24
1.176761621e-23
2.819940009e-23
6.716092478e-23
1.589848028e-22
3.741093475e-22
8.75171242e-22
2.035609512e-21
4.708320192e-21
1.083135272e-20
2.478736145e-20
5.644331362e-20
1.279225654e-19
2.886550602e-19
6.487420404e-19
1.452879832e-18
3.243993484e-18
7.226207738e-18
1.60708054e-17
3.571598615e-17
7.939869474e-17
1.767750405e-16
3.946447737e-16
8.846302953e-16
1.993091806e-15
4.516982943e-15
1.029457932e-14
2.356717195e-14
5.403493131e-14
1.235896317e-13
2.804961042e-13
6.286130386e-13
1.386568176e-12
3.018339771e-12
3.096845626e-68
2.644850471e-67
1.576910179e-66
8.038615009e-66
3.780104217e-65
1.700922503e-64
7.463349307e-64
3.22226043e-63
1.374939859e-62
5.808226427e-62
2.431289414e-61
1.008682125e-60
4.148655918e-60
1.691591547e-59
6.838796491e-59
2.741168612e-58
1.089508148e-57
4.294007735e-57
1.678315951e-56
6.505721197e-56
2.50131364e-55
9.539141025e-55
3.608811833e-54
1.354452577e-53
5.043809412e-53
1.863761675e-52
6.834649749e-52
2.487641513e-51
8.988110916e-51
3.224170931e-50
1.148433758e-49
4.062542937e-49
1.427454311e-48
4.982529099e-48
1.727916997e-47
5.954521917e-47
2.039225718e-46
6.940806917e-46
2.348031222e-45
7.895096097e-45
2.63857871e-44
8.764534637e-44
2.893416266e-43
9.492559908e-43
3.094612264e-42
1.00238467e-41
3.225669203e-41
1.031125477e-40
3.27388211e-40
1.032356673e-39
3.232723447e-39
1.005173299e-38
3.103229727e-38
9.511739681e-38
2.894390334e-37
8.743569113e-37
2.622064638e-36
7.805740797e-36
2.306737678e-35
6.767005315e-35
1.970666189e-34
5.697108437e-34
1.635044279e-33
4.658530801e-33
1.317723956e-32
3.700571648e-32
1.031800862e-31
2.856406495e-31
7.851560395e-31
2.142983615e-30
5.80796391e-30
1.563099229e-29
4.177555928e-29
1.108783239e-28
2.922640525e-28
7.651109547e-28
1.989344893e-27
5.137474174e-27
1.317838361e-26
3.357893125e-26
8.499251266e-26
2.137080389e-25
5.338335183e-25
1.324814236e-24
3.266549069e-24
8.002593499e-24
1.948067799e-23
4.712329627e-23
1.132804513e-22
2.706417441e-22
6.426758688e-22
1.517010768e-21
3.55985763e-21
8.305766826e-21
1.927052899e-20
4.446827353e-20
1.020789769e-19
2.331616112e-19
5.300686639e-19
1.199801645e-18
2.704928562e-18
6.076880271e-18
1.361187336e-17
3.042041635e-17
6.788119376e-17
1.513873331e-16
3.377772352e-16
7.549723221e-16
1.692524831e-15
3.811255629e-15
8.629421441e-15
1.96621972e-14
4.506643379e-14
1.037702126e-13
2.392481514e-13
5.498766572e-13
1.25238914e-12
2.811257327e-12
6.194891467e-12
1.342873977e-11
9.639487631e-68
8.120904205e-67
4.789443994e-66
2.424642197e-65
1.136602942e-64
5.113209627e-64
2.24737925e-63
9.729715232e-63
4.165422686e-62
1.765873711e-61
7.418944558e-61
3.089333314e-60
1.27535728e-59
5.219570335e-59
2.118062109e-58
8.521330877e-58
3.399418063e-57
1.344785923e-56
5.275895705e-56
2.052788487e-55
7.922131133e-55
3.032561358e-54
1.15158213e-53
4.338391254e-53
1.621674253e-52
6.015082835e-52
2.214225965e-51
8.090154075e-51
2.934345543e-50
1.056685894e-49
3.778605954e-49
1.341945121e-48
4.733943345e-48
1.65899635e-47
5.776554119e-47
1.998734279e-46
6.872975007e-46
2.348915137e-45
7.978902046e-45
2.693887698e-44
9.040087474e-44
3.015132124e-43
9.994351814e-43
3.29216574e-42
1.077568749e-41
3.504268464e-41
1.132112234e-40
3.633026857e-40
1.157950991e-39
3.66528773e-39
1.152071731e-38
3.595562997e-38
1.11413612e-37
3.427418997e-37
1.046726104e-36
3.173368234e-36
9.550347453e-36
2.853142159e-35
8.46119147e-35
2.490837156e-34
7.27896627e-34
2.111601692e-33
6.08109305e-33
1.738560072e-32
4.934557726e-32
1.390498413e-31
3.890187041e-31
1.080594374e-30
2.980314119e-30
8.161756429e-30
2.219436761e-29
5.993146287e-29
1.607072363e-28
4.279568529e-28
1.131785754e-27
2.97265166e-27
7.754534307e-27
2.009169456e-26
5.170656497e-26
1.321788427e-25
3.356463697e-25
8.466870269e-25
2.121793678e-24
5.282530575e-24
1.306653269e-23
3.211296531e-23
7.841993342e-23
1.902939398e-22
4.588864129e-22
1.09976482e-21
2.619663977e-21
6.202751408e-21
1.460037075e-20
3.416959076e-20
7.951985884e-20
1.840548483e-19
4.237810261e-19
9.708765317e-19
2.213782525e-18
5.025781509e-18
1.136418906e-17
2.560663055e-17
5.752855393e-17
1.289545771e-16
2.886342874e-16
6.457293923e-16
1.445457814e-15
3.241884e-15
7.294455921e-15
1.64911694e-14
3.750068523e-14
8.584734751e-14
1.977438792e-13
4.576436313e-13
1.060188435e-12
2.446607092e-12
5.587119968e-12
1.254962868e-11
2.759582593e-11
5.948989672e-11
3.006709275e-67
2.495746469e-66
1.455227099e-65
7.316004447e-65
3.41958613e-64
1.538443056e-63
6.774657088e-63
2.941446152e-62
1.263511529e-61
5.37560398e-61
2.26671261e-60
9.473659672e-60
3.925459058e-59
1.612498157e-58
6.567481131e-58
2.651977299e-57
1.061904161e-56
4.216458753e-56
1.660372381e-55
6.484361463e-55
2.511776941e-54
9.650879779e-54
3.678533003e-53
1.391025459e-52
5.219184089e-52
1.943210244e-51
7.180384941e-51
2.633536958e-50
9.588738844e-50
3.466371822e-49
1.244379425e-48
4.436714033e-48
1.57133283e-47
5.52864409e-47
1.932801263e-46
6.714745883e-46
2.318375824e-45
7.9556734e-45
2.713480184e-44
9.198925632e-44
3.099569159e-43
1.038005861e-42
3.454645793e-42
1.142546431e-41
3.754616953e-41
1.225829379e-40
3.975710093e-40
1.280768012e-39
4.097795228e-39
1.301988909e-38
4.107709186e-38
1.286739989e-37
4.001748138e-37
1.235524537e-36
3.78683382e-36
1.152153323e-35
3.479720886e-35
1.043215505e-34
3.104549004e-34
9.171082758e-34
2.689341612e-33
7.828574126e-33
2.262250398e-32
6.489801573e-32
1.848278299e-31
5.225911391e-31
1.466998387e-30
4.088695712e-30
1.131468514e-29
3.10897952e-29
8.482547029e-29
2.298175106e-28
6.183065595e-28
1.651977035e-27
4.383280073e-27
1.155062141e-26
3.023003719e-26
7.858079284e-26
2.028886314e-25
5.203324311e-25
1.325569058e-24
3.354587855e-24
8.433534239e-24
2.1063615e-23
5.226726685e-23
1.288612424e-22
3.156709185e-22
7.684094614e-22
1.858770282e-21
4.468542008e-21
1.067700378e-20
2.535815751e-20
5.987118702e-20
1.405415681e-19
3.280509311e-19
7.615568679e-19
1.758627583e-18
4.040738123e-18
9.240220108e-18
2.103718296e-17
4.770292947e-17
1.077875969e-16
2.428279756e-16
5.45814092e-16
1.225035552e-15
2.748247937e-15
6.169371528e-15
1.387752366e-14
3.132260491e-14
7.105135223e-14
1.621583939e-13
3.726910078e-13
8.620847933e-13
2.003736009e-12
4.660444934e-12
1.078978277e-11
2.46827197e-11
5.542173668e-11
1.214659856e-10
2.600447635e-10
9.341805174e-67
7.630854949e-66
4.396878442e-65
2.195267979e-64
1.023396722e-63
4.605738115e-63
2.032422647e-62
8.850825091e-62
3.814860411e-61
1.628831875e-60
6.893279411e-60
2.891590447e-59
1.20255274e-58
4.958009492e-58
2.02675368e-57
8.214250752e-57
3.301291447e-56
1.315667364e-55
5.200022476e-55
2.038306448e-54
7.92480811e-54
3.056206429e-53
1.169237802e-52
4.43792722e-52
1.671363083e-51
6.24622964e-51
2.316778572e-50
8.529517187e-50
3.117495097e-49
1.131332346e-48
4.077103735e-48
1.459344596e-47
5.18890378e-47
1.832924229e-46
6.433554975e-46
2.244093927e-45
7.779480528e-45
2.680429786e-44
9.179469708e-44
3.124575352e-43
1.057096033e-42
3.554390483e-42
1.187712008e-41
3.94376567e-41
1.30111953e-40
4.26460949e-40
1.388490334e-39
4.490150591e-39
1.442063061e-38
4.599031562e-38
1.456351455e-37
4.578760922e-37
1.429163735e-36
4.428374114e-36
1.362124379e-35
4.158977138e-35
1.260508418e-34
3.792197188e-34
1.132458746e-33
3.356941744e-33
9.877830427e-33
2.885256535e-32
8.366096176e-32
2.40817808e-31
6.881680378e-31
1.952334942e-30
5.498983793e-30
1.537777795e-29
4.269753447e-29
1.177132321e-28
3.222377172e-28
8.759341223e-28
2.364427205e-27
6.338045567e-27
1.687233831e-26
4.460684755e-26
1.171251986e-25
3.054490635e-25
7.91199669e-25
2.03568168e-24
5.202670669e-24
1.320846819e-23
3.331243678e-23
8.346554693e-23
2.077664963e-22
5.138460106e-22
1.262709446e-21
3.08327689e-21
7.481502153e-21
1.804113413e-20
4.323875757e-20
1.030047709e-19
2.439283577e-19
5.743037227e-19
1.344487555e-18
3.130264718e-18
7.249341919e-18
1.670367588e-17
3.830354627e-17
8.744321249e-17
1.988109224e-16
4.503956082e-16
1.017249488e-15
2.29219505e-15
5.15717431e-15
1.159742088e-14
2.609673565e-14
5.884560546e-14
1.331544498e-13
3.028572705e-13
6.932132359e-13
1.59829112e-12
3.709569795e-12
8.65194514e-12
2.018641548e-11
4.684555337e-11
1.072492854e-10
2.404752059e-10
5.246412755e-10
1.113806643e-09
2.877124274e-66
2.309899736e-65
1.314670563e-64
6.519411081e-64
3.032199152e-63
1.365486673e-62
6.039363378e-62
2.638127724e-61
1.140979716e-60
4.889025211e-60
2.076549299e-59
8.742398461e-59
3.64904309e-58
1.509952747e-57
6.194966218e-57
2.519932962e-56
1.016459639e-55
4.065728143e-55
1.612818033e-54
6.345109272e-54
2.47600112e-53
9.583854976e-53
3.680105687e-52
1.401981611e-51
5.299610968e-51
1.987967916e-50
7.401216634e-50
2.735143797e-49
1.003482695e-48
3.65556265e-48
1.322479244e-47
4.752057143e-47
1.696246239e-46
6.015545236e-46
2.119874909e-45
7.423971726e-45
2.58397947e-44
8.93904216e-44
3.073649366e-43
1.050453282e-42
3.568163652e-42
1.204570993e-41
4.041148993e-41
1.347156868e-40
4.461921119e-40
1.468124711e-39
4.798334753e-39
1.557594926e-38
5.021170113e-38
1.607296651e-37
5.108431509e-37
1.611925131e-36
5.049395162e-36
1.570176043e-35
4.846798326e-35
1.485072181e-34
4.516681909e-34
1.363541459e-33
4.085972324e-33
1.215360666e-32
3.588431987e-32
1.051728148e-31
3.059936128e-31
8.83778357e-31
2.534018046e-30
7.213156801e-30
2.03847252e-29
5.719565062e-29
1.593363573e-28
4.407331582e-28
1.210489008e-27
3.30130476e-27
8.940574811e-27
2.404449997e-26
6.421731183e-26
1.703296689e-25
4.48690013e-25
1.173917171e-24
3.050581022e-24
7.87405844e-24
2.018839283e-23
5.141723849e-23
1.300881328e-22
3.269696142e-22
8.16466098e-22
2.025589123e-21
4.993100591e-21
1.222982211e-20
2.976656209e-20
7.199902731e-20
1.730806779e-19
4.135554244e-19
9.822603301e-19
2.319417777e-18
5.445656932e-18
1.271485079e-17
2.952863603e-17
6.822539259e-17
1.568676697e-16
3.590445987e-16
8.183784244e-16
1.85848742e-15
4.207282268e-15
9.50143999e-15
2.142243201e-14
4.827210223e-14
1.088342366e-13
2.458779422e-13
5.574288387e-13
1.270378331e-12
2.913950697e-12
6.734094697e-12
1.566834786e-11
3.66365039e-11
8.566756151e-11
1.990875904e-10
4.557046101e-10
1.019224392e-09
2.210560272e-09
4.646461068e-09
8.746018153e-66
6.892530885e-65
3.873387924e-64
1.908140293e-63
8.857362082e-63
3.992417999e-62
1.77011299e-61
7.756593469e-61
3.366232923e-60
1.447529856e-59
6.170265318e-59
2.607079592e-58
1.092111649e-57
4.535406846e-57
1.867485108e-56
7.623845972e-56
3.086341625e-55
1.238973693e-54
4.932656476e-54
1.947638289e-53
7.627754753e-53
2.963235487e-52
1.142012307e-51
4.366590789e-51
1.656686484e-50
6.237483292e-50
2.330858893e-49
8.646019855e-49
3.184055488e-48
1.164316465e-47
4.22829093e-47
1.525212534e-46
5.465369298e-46
1.945837897e-45
6.884207385e-45
2.420476689e-44
8.458269801e-44
2.937756315e-43
1.014174948e-42
3.479903854e-42
1.186757899e-41
4.022243816e-41
1.354716677e-40
4.533733963e-40
1.507432336e-39
4.978967376e-39
1.63347092e-38
5.32232722e-38
1.722106316e-37
5.532755116e-37
1.764845345e-36
5.58884363e-36
1.75695243e-35
5.482761202e-35
1.698338785e-34
5.221852599e-34
1.593656194e-33
4.827619262e-33
1.451583399e-32
4.332382764e-32
1.28349851e-31
3.774483178e-31
1.101854829e-30
3.193070893e-30
9.185938332e-30
2.623514148e-29
7.438798901e-29
2.094096319e-28
5.853020311e-28
1.624307246e-27
4.475859157e-27
1.224672742e-26
3.327472485e-26
8.977906024e-26
2.405566256e-25
6.401134453e-25
1.691647859e-24
4.440105296e-24
1.157512742e-23
2.997254869e-23
7.709086882e-23
1.96961033e-22
4.99889097e-22
1.260380223e-21
3.157068308e-21
7.856729345e-21
1.942664437e-20
4.772834399e-20
1.165210895e-19
2.826909617e-19
6.816036593e-19
1.633435652e-18
3.891034066e-18
9.214469873e-18
2.169575842e-17
5.079792243e-17
1.18293692e-16
2.740417192e-16
6.317145194e-16
1.449476658e-15
3.311658939e-15
7.537482255e-15
1.709955164e-14
3.86922531e-14
8.739503945e-14
1.972548246e-13
4.453934751e-13
1.007598079e-12
2.287214228e-12
5.21900538e-12
1.198646982e-11
2.77391462e-11
6.463789345e-11
1.513704969e-10
3.543756927e-10
8.238987616e-10
1.883505086e-09
4.197171907e-09
9.0367621e-09
1.877478206e-08
2.613584227e-65
2.019122964e-64
1.120027207e-63
5.482617412e-63
2.540926683e-62
1.146700675e-61
5.097289631e-61
2.240764808e-60
9.757921082e-60
4.210822747e-59
1.801281235e-58
7.637923101e-58
3.210941342e-57
1.338218314e-56
5.529847854e-56
2.26557164e-55
9.20442894e-55
3.70822175e-54
1.481620369e-53
5.871096041e-53
2.307625751e-52
8.996971234e-52
3.479902118e-51
1.335396616e-50
5.084944521e-50
1.921503811e-49
7.206811617e-49
2.683178054e-48
9.918170676e-48
3.64041416e-47
1.327047883e-46
4.80516872e-46
1.728471722e-45
6.177794459e-45
2.19419342e-44
7.745054534e-44
2.717154091e-43
9.474614471e-43
3.28376855e-42
1.131197232e-41
3.872923808e-41
1.317777738e-40
4.455616008e-40
1.496881435e-39
4.995999164e-39
1.656394752e-38
5.454543607e-38
1.783826257e-37
5.792914343e-37
1.867874421e-36
5.979512779e-36
1.900285938e-35
5.994886921e-35
1.877291532e-34
5.835213725e-34
1.800308547e-33
5.513124735e-33
1.675749094e-32
5.05572683e-32
1.514006131e-31
4.500384326e-31
1.32788305e-30
3.889286039e-30
1.13081781e-29
3.263937277e-29
9.352585066e-29
2.660583706e-28
7.514369428e-28
2.107141247e-27
5.866721469e-27
1.621859731e-26
4.452074294e-26
1.213551282e-25
3.284851989e-25
8.829800342e-25
2.357105188e-24
6.249078544e-24
1.645427269e-23
4.303142096e-23
1.117770088e-22
2.883998425e-22
7.391454534e-22
1.881805857e-21
4.759354003e-21
1.195828777e-20
2.985095232e-20
7.403510657e-20
1.824446458e-19
4.467499167e-19
1.087091642e-18
2.628863904e-18
6.318382726e-18
1.509455269e-17
3.584740573e-17
8.463930836e-17
1.987132628e-16
4.639759898e-16
1.077624483e-15
2.490270148e-15
5.727462564e-15
1.311490941e-14
2.99122205e-14
6.798848208e-14
1.541056018e-13
3.486044983e-13
7.878173687e-13
1.780704374e-12
4.031672929e-12
9.157309767e-12
2.090483539e-11
4.803031805e-11
1.1119525e-10
2.592180311e-10
6.072974284e-10
1.421891973e-09
3.303571325e-09
7.534212864e-09
1.670660643e-08
3.565361906e-08
7.308341871e-08
7.647444543e-65
5.783717018e-64
3.166112333e-63
1.540535159e-62
7.131183636e-62
3.223029441e-61
1.436579736e-60
6.335571277e-60
2.76837246e-59
1.198788722e-58
5.146039201e-58
2.189715155e-57
9.23773254e-57
3.863513309e-56
1.602102737e-55
6.586882154e-55
2.685499155e-54
1.085730441e-53
4.353343083e-53
1.731161488e-52
6.828402536e-52
2.671711412e-51
1.037061019e-50
3.99390213e-50
1.526264741e-49
5.788280746e-49
2.17884197e-48
8.141742406e-48
3.020621618e-47
1.112815627e-46
4.0717398e-46
1.479882258e-45
5.343605527e-45
1.917211902e-44
6.835715916e-44
2.422222485e-43
8.530811635e-43
2.986259243e-42
1.039031225e-41
3.593200496e-41
1.234988391e-40
4.218301702e-40
1.431735983e-39
4.828211274e-39
1.61752773e-38
5.382789906e-38
1.779090988e-37
5.839433911e-37
1.903165295e-36
6.158454807e-36
1.978422292e-35
6.309382031e-35
1.997332259e-34
6.276109661e-34
1.95746638e-33
6.059735302e-33
1.861937888e-32
5.678445587e-32
1.71889939e-31
5.164578253e-31
1.540251944e-30
4.559654366e-30
1.339884251e-29
3.908507838e-29
1.131818911e-28
3.253715507e-28
9.286106446e-28
2.631201957e-27
7.402123007e-27
2.067546143e-26
5.734112055e-26
1.57908112e-25
4.318026292e-25
1.172530005e-24
3.161810845e-24
8.467136408e-24
2.251862235e-23
5.947962844e-23
1.560392921e-22
4.065874628e-22
1.052311215e-21
2.705335268e-21
6.908791363e-21
1.752689822e-20
4.417220781e-20
1.105997175e-19
2.751320635e-19
6.800382526e-19
1.670149599e-18
4.076001408e-18
9.885541243e-18
2.382798238e-17
5.708643956e-17
1.359505752e-16
3.218708796e-16
7.576938592e-16
1.773722715e-15
4.129908514e-15
9.56653469e-15
2.205205729e-14
5.06016906e-14
1.156334876e-13
2.632791805e-13
5.976436433e-13
1.353579957e-12
3.061774315e-12
6.92464727e-12
1.568206715e-11
3.561712311e-11
8.128022439e-11
1.866415707e-10
4.317971366e-10
1.005857147e-09
2.354636672e-09
5.506865883e-09
1.277044052e-08
2.901937973e-08
6.39456091e-08
1.350413186e-07
2.725721477e-07
2.182198125e-64
1.613390027e-63
8.714725137e-63
4.216622905e-62
1.950395795e-61
8.830375074e-61
3.946938987e-60
1.746296485e-59
7.656267601e-59
3.326753251e-58
1.432979348e-57
6.118551191e-57
2.590116425e-56
1.087005844e-55
4.523076592e-55
1.866043413e-54
7.634241166e-54
3.097165937e-53
1.2461439e-52
4.972662911e-52
1.968246483e-51
7.727933963e-51
3.010206138e-50
1.163358488e-49
4.46145879e-49
1.697993278e-48
6.414475173e-48
2.405542615e-47
8.957025974e-47
3.311866923e-46
1.216256809e-45
4.43689858e-45
1.608098093e-44
5.791415809e-44
2.072738576e-43
7.372731547e-43
2.606539039e-42
9.159329556e-42
3.199091865e-41
1.110549483e-40
3.831518668e-40
1.313674195e-39
4.475511631e-39
1.51489063e-38
5.093861138e-38
1.701321859e-37
5.64343756e-37
1.858941338e-36
6.080007657e-36
1.974313548e-35
6.364513056e-35
2.036671762e-34
6.469340425e-34
2.039690907e-33
6.382960785e-33
1.982560986e-32
6.111884845e-32
1.870119907e-31
5.679553266e-31
1.712051059e-30
5.122555429e-30
1.521371177e-29
4.485125027e-29
1.312556991e-28
3.813116801e-28
1.099701699e-27
3.148599112e-27
8.949989926e-27
2.52583845e-26
7.077528496e-26
1.969091656e-25
5.439684189e-25
1.492176207e-24
4.064624275e-24
1.099486491e-23
2.953547835e-23
7.87949666e-23
2.087707877e-22
5.493829297e-22
1.435917686e-21
3.727766922e-21
9.612781697e-21
2.462337917e-20
6.265590351e-20
1.583837654e-19
3.977524292e-19
9.924054999e-19
2.46014855e-18
6.059727745e-18
1.483167047e-17
3.607452475e-17
8.719990631e-17
2.09494083e-16
5.002740246e-16
1.187601586e-15
2.802941488e-15
6.578099787e-15
1.535343533e-14
3.564659664e-14
8.234709855e-14
1.893330557e-13
4.334304219e-13
9.883808317e-13
2.246472081e-12
5.092783458e-12
1.152648228e-11
2.607338797e-11
5.903166772e-11
1.339757152e-10
3.053821954e-10
7.001578955e-10
1.616853267e-09
3.758855697e-09
8.780324019e-09
2.048442142e-08
4.735104092e-08
1.070675563e-07
2.341044603e-07
4.883470908e-07
9.685462148e-07
6.046774627e-64
4.364151823e-63
2.325949144e-62
1.119670202e-61
5.177260509e-61
2.348586421e-60
1.052760699e-59
4.672843178e-59
2.05549345e-58
8.961407621e-58
3.873044468e-57
1.65929661e-56
7.047828401e-56
2.967783218e-55
1.239070776e-54
5.129217183e-54
2.105535765e-53
8.571005984e-53
3.460246477e-52
1.385489369e-51
5.502646867e-51
2.167896478e-50
8.473423027e-50
3.286020242e-49
1.264544666e-48
4.829505482e-48
1.830825332e-47
6.890159973e-47
2.574674742e-46
9.553954547e-46
3.521290176e-45
1.289240557e-44
4.689888817e-44
1.695275586e-43
6.089964564e-43
2.174307462e-42
7.715857203e-42
2.721531222e-41
9.541246536e-41
3.324612453e-40
1.151308222e-39
3.962013457e-39
1.354771982e-38
4.60241536e-38
1.55316443e-37
5.206025536e-37
1.732990869e-36
5.728413423e-36
1.88006475e-35
6.125894827e-35
1.981477144e-34
6.362126624e-34
2.027620972e-33
6.413955957e-33
2.013766647e-32
6.275241952e-32
1.940834993e-31
5.957799286e-31
1.815213551e-30
5.489366106e-30
1.647704615e-29
4.909199715e-29
1.451873676e-28
4.262332878e-28
1.242168521e-27
3.593708998e-27
1.032165666e-26
2.943168014e-26
8.332109622e-26
2.341986168e-25
6.536093862e-25
1.811223263e-24
4.983800027e-24
1.361755937e-23
3.69490471e-23
9.956067486e-23
2.664211305e-22
7.080469654e-22
1.868893101e-21
4.899488371e-21
1.275782477e-20
3.299728908e-20
8.477590233e-20
2.163596307e-19
5.485392614e-19
1.381609842e-18
3.457237057e-18
8.595272158e-18
2.12324148e-17
5.211615873e-17
1.271174549e-16
3.081247886e-16
7.422827683e-16
1.777337402e-15
4.230289193e-15
1.000963653e-14
2.354892719e-14
5.509295291e-14
1.281955261e-13
2.967565542e-13
6.835904355e-13
1.567509482e-12
3.579502858e-12
8.144612731e-12
1.847721417e-11
4.183130059e-11
9.460456628e-11
2.140258662e-10
4.85083522e-10
1.103504495e-09
2.523606766e-09
5.810040643e-09
1.346181513e-08
3.13318074e-08
7.280898468e-08
1.675130197e-07
3.763444228e-07
8.151999801e-07
1.676559027e-06
3.259972201e-06
1.619617163e-63
1.139429073e-62
5.992706752e-62
2.871678733e-61
1.32793841e-60
6.036916545e-60
2.713887309e-59
1.20842455e-58
5.332833869e-58
2.332598922e-57
1.011429656e-56
4.347439885e-56
1.852626855e-55
7.826951938e-55
3.278543204e-54
1.361654178e-53
5.608012044e-53
2.290406003e-52
9.277322876e-52
3.726989488e-51
1.485143407e-50
5.870600326e-50
2.302260932e-49
8.958275963e-49
3.459022445e-48
1.325549416e-47
5.042243725e-47
1.904150385e-46
7.139839198e-46
2.658675971e-45
9.833680662e-45
3.613281903e-44
1.319140797e-43
4.785615467e-43
1.725400497e-42
6.182740409e-42
2.20208321e-41
7.795682157e-41
2.743062818e-40
9.593056923e-40
3.33415255e-39
1.151536099e-38
3.951692428e-38
1.347236834e-37