/*--------------------------------*- C++ -*----------------------------------*\
  =========                 |
  \\      /  F ield         | OpenFOAM: The Open Source CFD Toolbox
   \\    /   O peration     | Website:  https://openfoam.org
    \\  /    A nd           | Version:  7
     \\/     M anipulation  |
\*---------------------------------------------------------------------------*/
FoamFile
{
    version     2.0;
    format      ascii;
    class       volScalarField;
    location    "0.361";
    object      Y_CO2;
}
// * * * * * * * * * * * * * * * * * * * * * * * * * * * * * * * * * * * * * //

dimensions      [0 0 0 0 0 0 0];

internalField   nonuniform List<scalar> 
35870
(
4.722493406e-73
4.776436356e-72
3.214333923e-71
1.774796448e-70
8.701485246e-70
3.953287043e-69
1.709087553e-68
7.149779315e-68
2.925108013e-67
1.177642178e-66
4.682478045e-66
1.84221035e-65
7.178747623e-65
2.772058133e-64
1.061008716e-63
4.025676474e-63
1.51426924e-62
5.647099185e-62
2.087984598e-61
7.654454719e-61
2.782376137e-60
1.002866105e-59
3.584374961e-59
1.270395885e-58
4.465174246e-58
1.556418334e-57
5.380503162e-57
1.844785179e-56
6.273604344e-56
2.116206832e-55
7.080995143e-55
2.350459369e-54
7.740438361e-54
2.529075041e-53
8.199181459e-53
2.637828696e-52
8.422623817e-52
2.669553167e-51
8.40038718e-51
2.62498073e-50
8.147754327e-50
2.512930035e-49
7.704269339e-49
2.349123443e-48
7.127872519e-48
2.153747652e-47
6.485710043e-47
1.948213422e-46
5.843159328e-46
1.751604809e-45
5.253610402e-45
1.578097659e-44
4.751469566e-44
1.434887767e-43
4.347815383e-43
1.32198979e-42
4.032731663e-42
1.233599649e-41
3.781308256e-41
1.160432213e-40
3.561905197e-40
1.092425043e-39
3.344415458e-39
1.02110013e-38
3.106529162e-38
9.410834556e-38
2.836994773e-37
8.506348325e-37
2.535708549e-36
7.512432649e-36
2.211422489e-35
6.466717713e-35
1.878236241e-34
5.417783724e-34
1.551900299e-33
4.414220248e-33
1.246749437e-32
3.496507328e-32
9.736933118e-32
2.692469176e-31
7.393156263e-31
2.015912394e-30
5.458716377e-30
1.46792332e-29
3.920393116e-29
1.039899344e-28
2.739765273e-28
7.170077239e-28
1.864036534e-27
4.814387454e-27
1.23544819e-26
3.150299741e-26
7.983198229e-26
2.010770384e-25
5.034788049e-25
1.253483933e-24
3.103663617e-24
7.644823892e-24
1.873850856e-23
4.572387246e-23
1.111177956e-22
2.690852431e-22
6.497280757e-22
1.5654472e-21
3.766963437e-21
9.062710098e-21
2.182603932e-20
5.269769134e-20
1.277685389e-19
3.116593099e-19
7.661715153e-19
1.901200056e-18
4.765075739e-18
1.205660791e-17
3.072383078e-17
7.854256013e-17
2.003700756e-16
5.07575404e-16
1.273900016e-15
3.186691713e-15
9.745667031e-73
9.777265161e-72
6.524305221e-71
3.576056248e-70
1.743759522e-69
7.896037442e-69
3.409145848e-68
1.426624439e-67
5.845443673e-67
2.358774187e-66
9.404960765e-66
3.711436651e-65
1.450897214e-64
5.620867883e-64
2.158485002e-63
8.21677159e-63
3.100991933e-62
1.160262533e-61
4.304188804e-61
1.583108503e-60
5.773574199e-60
2.087864212e-59
7.486900873e-59
2.662288261e-58
9.388166932e-58
3.283171529e-57
1.138712968e-56
3.917060813e-56
1.336455583e-55
4.522912014e-55
1.518369709e-54
5.056617946e-54
1.670701558e-53
5.47675315e-53
1.781412911e-52
5.7501632e-52
1.842171251e-51
5.858451843e-51
1.849789772e-50
5.80030262e-50
1.806732444e-49
5.592506388e-49
1.720985985e-48
5.267853943e-48
1.604894011e-47
4.870033047e-47
1.473171649e-46
4.446457136e-46
1.340425517e-45
4.040140986e-45
1.218799556e-44
3.683518837e-44
1.116181843e-43
3.393123649e-43
1.035117757e-42
3.168883487e-42
9.732380522e-42
2.996955075e-41
9.245873629e-41
2.855068565e-40
8.815509281e-40
2.718924027e-39
8.368347451e-39
2.567924511e-38
7.850086969e-38
2.388992365e-37
7.233484502e-37
2.178017709e-36
6.519057729e-36
1.939016084e-35
5.729869591e-35
1.681874157e-34
4.90305864e-34
1.41945538e-33
4.080631043e-33
1.164835623e-32
3.301592656e-32
9.291830847e-32
2.596585306e-31
7.205061401e-31
1.985258643e-30
5.431921984e-30
1.475917756e-29
3.982543612e-29
1.067256646e-28
2.840599016e-28
7.509474242e-28
1.971953561e-27
5.144038406e-27
1.333120392e-26
3.43269047e-26
8.783124339e-26
2.233411481e-25
5.644945365e-25
1.418398047e-24
3.543842034e-24
8.806288625e-24
2.177106223e-23
5.356479312e-23
1.312105233e-22
3.201471676e-22
7.785218977e-22
1.888060848e-21
4.570216237e-21
1.105180288e-20
2.673029158e-20
6.474547974e-20
1.573046118e-19
3.84010325e-19
9.437707913e-19
2.339310823e-18
5.857120393e-18
1.482083645e-17
3.787313599e-17
9.746209962e-17
2.514462494e-16
6.465174526e-16
1.647468094e-15
4.148568452e-15
1.037900895e-14
2.959154316e-72
2.937262177e-71
1.93888627e-70
1.052962816e-69
5.100243843e-69
2.300395428e-68
9.918148233e-68
4.152909038e-67
1.705073609e-66
6.900595978e-66
2.761018114e-65
1.093674711e-64
4.292234464e-64
1.669464175e-63
6.436720271e-63
2.460131979e-62
9.321814153e-62
3.50182037e-61
1.304261735e-60
4.816339688e-60
1.763527851e-59
6.402744592e-59
2.305097344e-58
8.229266258e-58
2.913417859e-57
1.022887153e-56
3.561705709e-56
1.230015782e-55
4.213175345e-55
1.431448454e-54
4.82432714e-54
1.612948526e-53
5.350088225e-53
1.760710141e-52
5.749580364e-52
1.863226621e-51
5.992938726e-51
1.913512315e-50
6.066372533e-50
1.910039516e-49
5.974563726e-49
1.857317053e-48
5.740951212e-48
1.765396271e-47
5.404416984e-47
1.648309536e-46
5.012948245e-46
1.521717303e-45
4.615278958e-45
1.400103989e-44
4.252774155e-44
1.294594662e-43
3.952460753e-43
1.210849914e-42
3.72299051e-42
1.148752489e-41
3.555636457e-41
1.10325363e-40
3.428672823e-40
1.066206479e-39
3.314138323e-39
1.028650341e-38
3.185015113e-38
9.829207428e-38
3.02100699e-37
9.241105015e-37
2.811861329e-36
8.506757564e-36
2.557852626e-35
7.641930363e-35
2.268036202e-34
6.68564215e-34
1.957170881e-33
5.68942924e-33
1.642243051e-32
4.706731721e-32
1.339391466e-31
3.784439596e-31
1.061715988e-30
2.957603563e-30
8.18102402e-30
2.247112668e-29
6.129250762e-29
1.660250061e-28
4.466261072e-28
1.193280885e-27
3.166619035e-27
8.34705662e-27
2.185692727e-26
5.685929919e-26
1.469651569e-25
3.77466575e-25
9.635008537e-25
2.444577801e-24
6.166132789e-24
1.546584866e-23
3.858295099e-23
9.576572371e-23
2.365751704e-22
5.819136599e-22
1.425902812e-21
3.48277993e-21
8.485236089e-21
2.063841964e-20
5.016284437e-20
1.219861442e-19
2.971993161e-19
7.266541057e-19
1.786170897e-18
4.423170114e-18
1.105469841e-17
2.792874699e-17
7.134984537e-17
1.841386254e-16
4.784735876e-16
1.245506862e-15
3.226293924e-15
8.264601324e-15
2.086073814e-14
5.212702577e-14
1.01105068e-71
9.918847457e-71
6.472567125e-70
3.481838551e-69
1.675315637e-68
7.528281624e-68
3.242238758e-67
1.358766336e-66
5.591243034e-66
2.269775203e-65
9.113934887e-65
3.623829876e-64
1.427778501e-63
5.575347563e-63
2.158183112e-62
8.281489116e-62
3.150480489e-61
1.188206104e-60
4.443066078e-60
1.647223296e-59
6.055259767e-59
2.207124074e-58
7.977316839e-58
2.859113264e-57
1.01618522e-56
3.581739735e-56
1.252039711e-55
4.340719047e-55
1.492621342e-54
5.090999424e-54
1.722465675e-53
5.781234698e-53
1.925077133e-52
6.360088709e-52
2.084993196e-51
6.783212548e-51
2.190393603e-50
7.021688443e-50
2.235056969e-49
7.06609951e-49
2.21952272e-48
6.929549792e-48
2.15145259e-47
6.646579578e-47
2.044605266e-46
6.267855439e-46
1.916575441e-45
5.85145183e-45
1.785635352e-44
5.45243424e-44
1.667630098e-43
5.113348779e-43
1.572907137e-42
4.855924863e-42
1.504725566e-41
4.679138572e-41
1.45940632e-40
4.562055675e-40
1.427958196e-39
4.4708945e-39
1.39874479e-38
4.368191759e-38
1.360409346e-37
4.221532333e-37
1.304307832e-36
4.009836814e-36
1.225978891e-35
3.726187073e-35
1.125446523e-34
3.377139105e-34
1.006582065e-33
2.979614273e-33
8.758586726e-33
2.556454955e-32
7.408852831e-32
2.131868112e-31
6.090622856e-31
1.727655645e-30
4.86581404e-30
1.360724228e-29
3.778443078e-29
1.041832073e-28
2.852601505e-28
7.756428397e-28
2.094504208e-27
5.617246229e-27
1.496289404e-26
3.959023464e-26
1.040579732e-25
2.717169178e-25
7.049475682e-25
1.817388207e-24
4.656386477e-24
1.185854286e-23
3.002450351e-23
7.559275818e-23
1.893025978e-22
4.716739834e-22
1.169748701e-21
2.888696747e-21
7.107044994e-21
1.743124504e-20
4.265088087e-20
1.042026847e-19
2.5445794e-19
6.218657864e-19
1.523108206e-18
3.745351231e-18
9.263689314e-18
2.309683636e-17
5.815658283e-17
1.481244024e-16
3.816911843e-16
9.938674927e-16
2.604953543e-15
6.834354614e-15
1.781478106e-14
4.581990649e-14
1.157765397e-13
2.885450625e-13
3.625382067e-71
3.51127192e-70
2.263498465e-69
1.205769928e-68
5.763519644e-68
2.580989337e-67
1.11069297e-66
4.660097419e-66
1.922298611e-65
7.828556548e-65
3.154812168e-64
1.259184259e-63
4.980586632e-63
1.952558598e-62
7.588239645e-62
2.923330867e-61
1.116510343e-60
4.227560723e-60
1.587056366e-59
5.907052951e-59
2.180003354e-58
7.977230297e-58
2.894544614e-57
1.041474668e-56
3.716049954e-56
1.314893625e-55
4.614242638e-55
1.605932077e-54
5.543662473e-54
1.898148493e-53
6.446994149e-53
2.172236179e-52
7.261319199e-52
2.408311672e-51
7.925789083e-51
2.588635189e-50
8.392040415e-50
2.700932243e-49
8.631981577e-49
2.740200706e-48
8.643386259e-48
2.710217296e-47
8.452266001e-47
2.623407365e-46
8.109699776e-46
2.49897621e-45
7.683411679e-45
2.35955263e-44
7.245423619e-44
2.227074055e-43
6.859248311e-43
2.118626014e-42
6.566479673e-42
2.04291488e-41
6.379789933e-41
1.999219766e-40
6.282722461e-40
1.978359405e-39
6.235963545e-39
1.965539161e-38
6.188361811e-38
1.944206746e-37
6.089424665e-37
1.899841589e-36
5.90007134e-36
1.822793323e-35
5.599444216e-35
1.709654308e-34
5.186713288e-34
1.563118889e-33
4.678733687e-33
1.390729554e-32
4.104812997e-32
1.202962499e-31
3.500267108e-31
1.011187065e-30
2.900286568e-30
8.259113838e-30
2.335176126e-29
6.555621076e-29
1.827377972e-28
5.057986165e-28
1.390204061e-27
3.794462821e-27
1.0285248e-26
2.768829986e-26
7.403248987e-26
1.966181927e-25
5.187226043e-25
1.359553805e-24
3.540402933e-24
9.161289738e-24
2.355964018e-23
6.022273494e-23
1.530433751e-22
3.867500422e-22
9.721251995e-22
2.431253101e-21
6.052209162e-21
1.500280003e-20
3.705354071e-20
9.123673064e-20
2.241346671e-19
5.498622505e-19
1.348507005e-18
3.310466464e-18
8.146922054e-18
2.013627297e-17
5.008143328e-17
1.256266791e-16
3.184279798e-16
8.169348179e-16
2.121393046e-15
5.567896768e-15
1.470595151e-14
3.884694819e-14
1.017871278e-13
2.625540027e-13
6.632636724e-13
1.646343549e-12
1.329482574e-70
1.269692087e-69
8.079781879e-69
4.261116366e-68
2.023583577e-67
9.033225127e-67
3.885553449e-66
1.632594355e-65
6.75231762e-65
2.75900651e-64
1.115939121e-63
4.471178421e-63
1.775473196e-62
6.987927645e-62
2.72647349e-61
1.0545073e-60
4.043406354e-60
1.537029034e-59
5.792822489e-59
2.164576705e-58
8.019737688e-58
2.946124616e-57
1.073179501e-56
3.876413545e-56
1.388512245e-55
4.932219302e-55
1.73753579e-54
6.070713877e-54
2.103716933e-53
7.230980541e-53
2.465474752e-52
8.339252974e-52
2.798426212e-51
9.317313887e-51
3.078277784e-50
1.009331143e-49
3.2850453e-49
1.061491676e-48
3.40617868e-48
1.085742059e-47
3.43921679e-47
1.083098095e-46
3.393100426e-46
1.058127353e-45
3.287247174e-45
1.018286638e-44
3.14836033e-44
9.726119911e-44
3.005540641e-43
9.300560749e-43
2.88483444e-42
8.976341184e-42
2.803333683e-41
8.789074587e-41
2.766025768e-40
8.734277815e-40
2.765345426e-39
8.770569608e-39
2.783630173e-38
8.831370668e-38
2.797768149e-37
8.841470078e-37
2.784654543e-36
8.73384154e-36
2.726046784e-35
8.46273963e-35
2.611794525e-34
8.010476991e-34
2.440870211e-33
7.387586604e-33
2.220550536e-32
6.627762391e-32
1.964196827e-31
5.77950792e-31
1.688380402e-30
4.896850772e-30
1.410037235e-29
4.031041023e-29
1.144165501e-28
3.224485055e-28
9.022865322e-28
2.507009097e-27
6.916908303e-27
1.895100606e-26
5.156307548e-26
1.3933369e-25
3.739485688e-25
9.968660665e-25
2.639768745e-24
6.944464157e-24
1.815100995e-23
4.714164219e-23
1.216777394e-22
3.121706351e-22
7.962148653e-22
2.019417393e-21
5.094417483e-21
1.278725487e-20
3.194742006e-20
7.948259183e-20
1.970215279e-19
4.869122221e-19
1.200621151e-18
2.956634832e-18
7.279241832e-18
1.794217221e-17
4.434205711e-17
1.100924002e-16
2.751435107e-16
6.938491693e-16
1.768929862e-15
4.567126248e-15
1.194023419e-14
3.155823793e-14
8.390909082e-14
2.229428049e-13
5.865566859e-13
1.515599064e-12
3.822860978e-12
9.436956926e-12
4.9206853e-70
4.628187166e-69
2.90527042e-68
1.516552078e-67
7.156363859e-67
3.185506977e-66
1.370063144e-65
5.766487465e-65
2.391743956e-64
9.806174944e-64
3.981120658e-63
1.601256425e-62
6.383434237e-62
2.522297095e-61
9.880095177e-61
3.836325373e-60
1.476774394e-59
5.635746502e-59
2.13238205e-58
7.999212267e-58
2.975290871e-57
1.097263302e-56
4.012545e-56
1.454996018e-55
5.231945274e-55
1.865669192e-54
6.59785786e-54
2.314109072e-53
8.050170389e-53
2.777713048e-52
9.507430606e-52
3.228219358e-51
1.087487582e-50
3.634780153e-50
1.205538942e-49
3.968297659e-49
1.296652033e-48
4.206585796e-48
1.355309608e-47
4.338019775e-47
1.379956039e-46
4.36490459e-46
1.373666034e-45
4.304211243e-45
1.34391168e-44
4.185242912e-44
1.301355576e-43
4.044545914e-43
1.257892623e-42
3.919085519e-42
1.224331543e-41
3.837965106e-41
1.207767997e-40
3.81590423e-40
1.210171376e-39
3.85034143e-39
1.228032168e-38
3.922417423e-38
1.253321904e-37
4.001805521e-37
1.275466239e-36
4.053881552e-36
1.283744594e-35
4.047247402e-35
1.269508821e-34
3.959826826e-34
1.227708471e-33
3.782211508e-33
1.157480877e-32
3.518136871e-32
1.061887369e-31
3.182475231e-31
9.469803397e-31
2.797603359e-30
8.205205738e-30
2.389169454e-29
6.906539674e-29
1.982154242e-28
5.647954296e-28
1.597852803e-27
4.488355347e-27
1.251865357e-26
3.467093726e-26
9.535221147e-26
2.604206685e-25
7.063567377e-25
1.902848702e-24
5.091509347e-24
1.353273799e-23
3.573229972e-23
9.37383935e-23
2.443472772e-22
6.329817443e-22
1.629821379e-21
4.171923247e-21
1.061890886e-20
2.688347529e-20
6.771649845e-20
1.697729496e-19
4.238482811e-19
1.054263389e-18
2.614434534e-18
6.468789766e-18
1.598494386e-17
3.949217763e-17
9.768860838e-17
2.423140919e-16
6.039439017e-16
1.515603692e-15
3.839168393e-15
9.835806223e-15
2.553181989e-14
6.713532646e-14
1.784987543e-13
4.772793774e-13
1.274151907e-12
3.362309561e-12
8.692598366e-12
2.186304851e-11
5.359317123e-11
1.822796643e-69
1.686319255e-68
1.043488399e-67
5.390622554e-67
2.528142763e-66
1.122563393e-65
4.829242032e-65
2.036627228e-64
8.472576945e-64
3.485971269e-63
1.420571552e-62
5.735833578e-62
2.295559649e-61
9.106105318e-61
3.580939228e-60
1.395886199e-59
5.394503725e-59
2.066744212e-58
7.850460433e-58
2.956427989e-57
1.103917868e-56
4.086970471e-56
1.500345806e-55
5.461483686e-55
1.971456209e-54
7.057175375e-54
2.505358452e-53
8.821035432e-53
3.080410828e-52
1.066983255e-51
3.6660659e-51
1.249591639e-50
4.225698596e-50
1.417833285e-49
4.720759255e-49
1.560019794e-48
5.117523482e-48
1.666854693e-47
5.392212387e-47
1.733081144e-46
5.536581847e-46
1.758994742e-45
5.561153686e-45
1.750934174e-44
5.494844401e-44
1.720474174e-43
5.380386882e-43
1.682474234e-42
5.266864941e-42
1.652271764e-41
5.199054925e-41
1.641970191e-40
5.206628274e-40
1.657687623e-39
5.297365046e-39
1.698055359e-38
5.455039122e-38
1.754478177e-37
5.643114404e-37
1.813116817e-36
5.813094176e-36
1.857984841e-35
5.915066009e-35
1.874314469e-34
5.907811187e-34
1.851380625e-33
5.766027491e-33
1.784160225e-32
5.483563362e-32
1.673730017e-31
5.072758603e-31
1.526507092e-30
4.560603006e-30
1.352689075e-29
3.983067693e-29
1.164339312e-28
3.378992595e-28
9.735300044e-28
2.784712768e-27
7.908523189e-27
2.230013889e-26
6.243559471e-26
1.735750558e-25
4.791731508e-25
1.313620684e-24
3.576383668e-24
9.670348944e-24
2.597133485e-23
6.92842801e-23
1.836124411e-22
4.834380005e-22
1.264742167e-21
3.288099467e-21
8.496494124e-21
2.182566132e-20
5.574758995e-20
1.416213812e-19
3.579443072e-19
9.004211143e-19
2.255386857e-18
5.628197492e-18
1.400179731e-17
3.475297285e-17
8.614381141e-17
2.13478789e-16
5.296847502e-16
1.317940687e-15
3.295332969e-15
8.297419065e-15
2.109429451e-14
5.425645201e-14
1.414545971e-13
3.736970192e-13
9.984217619e-13
2.68173825e-12
7.185468219e-12
1.899663746e-11
4.907966782e-11
1.229185554e-10
2.987364473e-10
6.716256856e-69
6.10341045e-68
3.720509681e-67
1.901944707e-66
8.867623807e-66
3.929293176e-65
1.691392621e-64
7.149054016e-64
2.983429151e-63
1.231905306e-62
5.039175659e-62
2.042537511e-61
8.206429395e-61
3.268076405e-60
1.290180021e-59
5.04887445e-59
1.958784768e-58
7.533702928e-58
2.872771458e-57
1.086059162e-56
4.070996034e-56
1.513002143e-55
5.575721917e-55
2.037459014e-54
7.382980074e-54
2.653012216e-53
9.454541497e-53
3.341572359e-52
1.17138536e-51
4.072935407e-51
1.404783524e-50
4.806597789e-50
1.631667954e-49
5.495708998e-49
1.836917573e-48
6.093954509e-48
2.006949713e-47
6.56303355e-47
2.131744305e-46
6.880013739e-46
2.2073328e-45
7.043918524e-45
2.237295632e-44
7.078481672e-44
2.232839632e-43
7.029472202e-43
2.211120432e-42
6.957321544e-42
2.192331223e-41
6.925487797e-41
2.195030643e-40
6.984372775e-40
2.23162137e-39
7.159400828e-39
2.305181218e-38
7.443679143e-38
2.408302781e-37
7.798365571e-37
2.524473963e-36
8.16068744e-36
2.631573657e-35
8.457197767e-35
2.70646816e-34
8.618715351e-34
2.729578619e-33
8.593289626e-33
2.688272716e-32
8.35434234e-32
2.578583316e-31
7.903315886e-31
2.405170134e-30
7.267001328e-30
2.179790271e-29
6.490989458e-29
1.918836982e-28
5.631140544e-28
1.640555412e-27
4.744947764e-27
1.362490269e-26
3.88428803e-26
1.099458924e-25
3.089951762e-25
8.622783862e-25
2.389384795e-24
6.574906216e-24
1.796725923e-23
4.87629256e-23
1.314446259e-22
3.519447938e-22
9.36100605e-22
2.473602754e-21
6.494513604e-21
1.694455321e-20
4.393882914e-20
1.132610214e-19
2.902829697e-19
7.399150642e-19
1.876280789e-18
4.735062486e-18
1.189770718e-17
2.978069461e-17
7.430710621e-17
1.849588889e-16
4.597261118e-16
1.142295967e-15
2.841542838e-15
7.087944058e-15
1.776677591e-14
4.484975058e-14
1.143290381e-13
2.949282188e-13
7.714326579e-13
2.045185908e-12
5.48439678e-12
1.478051806e-11
3.970269758e-11
1.050343404e-10
2.708470015e-10
6.744681215e-10
1.622490926e-09
2.448909824e-68
2.183073053e-67
1.310103723e-66
6.627393917e-66
3.072892826e-65
1.359380166e-64
5.857162114e-64
2.481783668e-63
1.039074057e-62
4.306088878e-62
1.7681167e-61
7.194378346e-61
2.901747624e-60
1.160059782e-59
4.597488353e-59
1.806110108e-58
7.034191166e-58
2.715877871e-57
1.039620288e-56
3.945440523e-56
1.484596912e-55
5.538726957e-55
2.048951458e-54
7.515825122e-54
2.733849542e-53
9.861318891e-53
3.527668038e-52
1.251550291e-51
4.403993986e-51
1.537102767e-50
5.321743169e-50
1.827818429e-49
6.228381493e-49
2.105862508e-48
7.065933359e-48
2.353227014e-47
7.780425544e-47
2.554454596e-46
8.330835439e-46
2.699891703e-45
8.699314851e-45
2.788454214e-44
8.898026942e-44
2.829038323e-43
8.970347125e-43
2.839662292e-42
8.984926438e-42
2.844914993e-41
9.024427392e-41
2.870772084e-40
9.165303809e-40
2.938176449e-39
9.459247749e-39
3.057678487e-38
9.918518059e-38
3.225999652e-37
1.050997868e-36
3.425858071e-36
1.116002164e-35
3.629140583e-35
1.176895783e-34
3.802492756e-34
1.22307462e-33
3.913852707e-33
1.245338045e-32
3.938327437e-32
1.237454432e-31
3.862110048e-31
1.197048033e-30
3.684057796e-30
1.125703552e-29
3.414866562e-29
1.02838638e-28
3.074407174e-28
9.124004135e-28
2.688007436e-27
7.861452836e-27
2.282512681e-26
6.579270575e-26
1.882827549e-25
5.349649983e-25
1.509169256e-24
4.227331807e-24
1.175790836e-23
3.247513268e-23
8.907428975e-23
2.426389922e-22
6.564539518e-22
1.764070172e-21
4.709032468e-21
1.248801543e-20
3.290402014e-20
8.614968081e-20
2.241675936e-19
5.798053096e-19
1.490985322e-18
3.812873976e-18
9.699532319e-18
2.455384721e-17
6.187999098e-17
1.553321368e-16
3.886297176e-16
9.698267811e-16
2.416352198e-15
6.017390431e-15
1.49995839e-14
3.748641715e-14
9.413241987e-14
2.380337506e-13
6.078460142e-13
1.570938227e-12
4.117594881e-12
1.094132434e-11
2.941150421e-11
7.943145281e-11
2.136403494e-10
5.648596299e-10
1.451867966e-09
3.589324933e-09
8.53127282e-09
8.796117611e-68
7.68105163e-67
4.535353427e-66
2.270519098e-65
1.04737652e-64
4.627875403e-64
1.996613021e-63
8.482683524e-63
3.563465498e-62
1.482166849e-61
6.10896263e-61
2.495237139e-60
1.010291448e-59
4.054486716e-59
1.613032113e-58
6.361082877e-58
2.486930055e-57
9.638715151e-57
3.70374121e-56
1.410961514e-55
5.329414025e-55
1.995855598e-54
7.411339825e-54
2.728883452e-53
9.963781092e-53
3.607645081e-52
1.295431759e-51
4.613305039e-51
1.629472602e-50
5.708719177e-50
1.9839281e-49
6.839792091e-49
2.339516429e-48
7.94022084e-48
2.674446811e-47
8.941359139e-47
2.967819337e-46
9.782570711e-46
3.203313396e-45
1.042460638e-44
3.373343695e-44
1.086117256e-43
3.482071149e-43
1.112563305e-42
3.546232876e-42
1.128862901e-41
3.593112215e-41
1.144911176e-40
3.656176477e-40
1.171259397e-39
3.766699306e-39
1.216535899e-38
3.946059446e-38
1.285103043e-37
4.199204196e-37
1.375489591e-36
4.511703948e-36
1.4801723e-35
4.851387777e-35
1.586793309e-34
5.174123857e-34
1.680466267e-33
5.432152363e-33
1.746587859e-32
5.582945776e-32
1.77343069e-31
5.596352991e-31
1.754004932e-30
5.458996485e-30
1.686918531e-29
5.175291836e-29
1.576190273e-28
4.765403249e-28
1.430211066e-27
4.260971617e-27
1.260168488e-26
3.699709702e-26
1.07829402e-25
3.119994447e-25
8.962537988e-25
2.556129303e-24
7.23810909e-24
2.035053993e-23
5.681389284e-23
1.575006429e-22
4.335928487e-22
1.185439324e-21
3.218856487e-21
8.681209002e-21
2.325679439e-20
6.189426375e-20
1.636542802e-19
4.299653477e-19
1.122614176e-18
2.913335833e-18
7.516234432e-18
1.928238353e-17
4.920355701e-17
1.249257646e-16
3.157258987e-16
7.946596949e-16
1.993140318e-15
4.985297536e-15
1.244671204e-14
3.105241082e-14
7.752604107e-14
1.940047399e-13
4.876886723e-13
1.234298418e-12
3.154273593e-12
8.157846386e-12
2.139989832e-11
5.691725182e-11
1.531589221e-10
4.139437338e-10
1.11331471e-09
2.937919654e-09
7.516351874e-09
1.84168974e-08
4.316872942e-08
3.098844007e-67
2.646816811e-66
1.536873896e-65
7.615634596e-65
3.496735368e-64
1.54394726e-63
6.671936663e-63
2.842703542e-62
1.198277562e-61
5.00235878e-61
2.069560802e-60
8.485360166e-60
3.448705481e-59
1.389300338e-58
5.548192362e-58
2.196271416e-57
8.619116744e-57
3.353204308e-56
1.29336305e-55
4.945738662e-55
1.875119812e-54
7.048709891e-54
2.627277041e-53
9.710027437e-53
3.558639631e-52
1.293320861e-51
4.66142378e-51
1.66623829e-50
5.907345906e-50
2.077319815e-49
7.246211813e-49
2.507564225e-48
8.609170456e-48
2.932961171e-47
9.916459361e-47
3.328047324e-46
1.108937826e-45
3.6697341e-45
1.206508594e-44
3.942657563e-44
1.281301306e-43
4.143884376e-43
1.334767408e-42
4.285945093e-42
1.373308691e-41
4.396237017e-41
1.407704884e-40
4.514137232e-40
1.451263661e-39
4.681903121e-39
1.516638844e-38
4.934667721e-38
1.612579453e-37
5.290364489e-37
1.741118785e-36
5.742791107e-36
1.896177483e-35
6.260089692e-35
2.06404796e-34
6.789238009e-34
2.22564866e-33
7.265321233e-33
2.35995087e-32
7.623293942e-32
2.447741858e-31
7.809213885e-31
2.474802579e-30
7.788772851e-30
2.434005972e-29
7.551746835e-29
2.326009173e-28
7.111990183e-28
2.158608113e-27
6.503602819e-27
1.945056174e-26
5.774481901e-26
1.70178707e-25
4.978755695e-25
1.44602745e-24
4.169512715e-24
1.193607307e-23
3.392508949e-23
9.573743503e-23
2.682642394e-22
7.464227137e-22
2.0623866e-21
5.659043262e-21
1.542162372e-20
4.174083928e-20
1.122197133e-19
2.997034889e-19
7.951917857e-19
2.096326896e-18
5.49175353e-18
1.429866541e-17
3.700781495e-17
9.52356427e-17
2.437420462e-16
6.206148854e-16
1.572703455e-15
3.968292863e-15
9.975895556e-15
2.500284254e-14
6.253367631e-14
1.562354803e-13
3.904864683e-13
9.778831267e-13
2.459071546e-12
6.223741855e-12
1.590031624e-11
4.110283252e-11
1.077630195e-10
2.864662498e-10
7.704867518e-10
2.080849897e-09
5.588218558e-09
1.469705478e-08
3.73690468e-08
9.058510129e-08
2.08959088e-07
1.066177565e-66
8.893740465e-66
5.076046721e-65
2.490403215e-64
1.138773335e-63
5.026959694e-63
2.17651446e-62
9.301330953e-62
3.934374308e-61
1.648475769e-60
6.845471431e-60
2.817243132e-59
1.149316261e-58
4.647390123e-58
1.862903895e-57
7.402014836e-57
2.915742021e-56
1.13858845e-55
4.408031102e-55
1.691883846e-54
6.438443077e-54
2.429247482e-53
9.088159831e-53
3.371293644e-52
1.24012151e-51
4.523652127e-51
1.636451827e-50
5.871148499e-50
2.089194605e-49
7.373770835e-49
2.5816598e-48
8.966852308e-48
3.090035646e-47
1.056650872e-46
3.58603371e-46
1.208078528e-45
4.04094313e-45
1.342486254e-44
4.431441431e-44
1.454101009e-43
4.74584537e-43
1.541732632e-42
4.989381477e-42
1.610058486e-41
5.186327169e-41
1.66964302e-40
5.378536314e-40
1.735789712e-39
5.618071177e-39
1.82518542e-38
5.955255041e-38
1.951893347e-37
6.425371119e-37
2.123218639e-36
7.036929576e-36
2.33672398e-35
7.765300501e-35
2.579360867e-34
8.553857227e-34
2.829045017e-33
9.322448574e-33
3.058264261e-32
9.981062759e-32
3.238852056e-31
1.044534266e-30
3.346713824e-30
1.0650291e-29
3.365607053e-29
1.055990806e-28
3.289321247e-28
1.017118065e-27
3.122025188e-27
9.512427432e-27
2.876954354e-26
8.637006443e-26
2.573879321e-25
7.614076184e-25
2.235954427e-24
6.518413655e-24
1.886542783e-23
5.420655718e-23
1.546369969e-22
4.379949272e-22
1.231792031e-21
3.439842783e-21
9.538805338e-21
2.626800497e-20
7.183946023e-20
1.951327475e-19
5.264526636e-19
1.410866615e-18
3.756209539e-18
9.935666566e-18
2.611445537e-17
6.821253252e-17
1.771010583e-16
4.571296707e-16
1.17334682e-15
2.995767878e-15
7.61103862e-15
1.924951512e-14
4.84928361e-14
1.217583221e-13
3.049713495e-13
7.62770756e-13
1.907652284e-12
4.77807643e-12
1.201121421e-11
3.037354853e-11
7.749369969e-11
1.999767204e-10
5.232524756e-10
1.38803202e-09
3.725295608e-09
1.003684288e-08
2.68710915e-08
7.03209889e-08
1.773970542e-07
4.245825887e-07
9.616964795e-07
3.56661876e-66
2.901049389e-65
1.626920283e-64
7.906015663e-64
3.60239068e-63
1.590602519e-62
6.901903999e-62
2.958726402e-61
1.255875236e-60
5.281184952e-60
2.201141409e-59
9.092307733e-59
3.722997528e-58
1.511007219e-57
6.079213791e-57
2.424412757e-56
9.585224338e-56
3.75677559e-55
1.459772353e-54
5.623430674e-54
2.147826112e-53
8.133468751e-53
3.05396072e-52
1.137014549e-51
4.197722052e-51
1.536800647e-50
5.579683335e-50
2.009125691e-49
7.175285024e-49
2.541711022e-48
8.931302002e-48
3.113428868e-47
1.076848589e-46
3.695924156e-46
1.258977089e-45
4.2572325e-45
1.429443672e-44
4.767358451e-44
1.579931598e-43
5.205556772e-43
1.706216873e-42
5.567538345e-42
1.810247328e-41
5.870720113e-41
1.90111793e-40
6.154964217e-40
1.994703744e-39
6.478587854e-39
2.110966998e-38
6.906013974e-38
2.269472083e-37
7.492340841e-37
2.484176527e-36
8.266915561e-36
2.758682439e-35
9.22092559e-35
3.083455363e-34
1.030297434e-33
3.435941296e-33
1.14242576e-32
3.783611424e-32
1.247206791e-31
4.089216305e-31
1.332848743e-30
4.316959519e-30
1.38895881e-29
4.438201626e-29
1.408155851e-28
4.435703829e-28
1.387082257e-27
4.305695495e-27
1.32669183e-26
4.057652795e-26
1.231846044e-25
3.712086859e-25
1.110368233e-24
3.296957112e-24
9.717845458e-24
2.843498453e-23
8.259901752e-23
2.382048033e-22
6.820179907e-22
1.93877861e-21
5.472247776e-21
1.53365624e-20
4.268108647e-20
1.179534118e-19
3.237255109e-19
8.823914651e-19
2.388869705e-18
6.423966244e-18
1.716051061e-17
4.554237559e-17
1.200903981e-16
3.146769707e-16
8.195079226e-16
2.121545797e-15
5.460845534e-15
1.39794606e-14
3.560315928e-14
9.024536435e-14
2.277827808e-13
5.728452962e-13
1.436557462e-12
3.595736604e-12
8.994854255e-12
2.252135972e-11
5.655727947e-11
1.427775458e-10
3.634033608e-10
9.349580609e-10
2.437794947e-09
6.442151905e-09
1.722134515e-08
4.620294988e-08
1.230913568e-07
3.199636708e-07
7.993197341e-07
1.884772127e-06
4.181587982e-06
1.154629229e-65
9.142737481e-65
5.036755246e-64
2.42556027e-63
1.102003657e-62
4.869137422e-62
2.117906104e-61
9.108093761e-61
3.879492804e-60
1.637262238e-59
6.848612688e-59
2.839260016e-58
1.166799645e-57
4.75274352e-57
1.91908291e-56
7.681087521e-56
3.047787336e-55
1.19884583e-54
4.675147012e-54
1.807475848e-53
6.92832505e-53
2.633066386e-52
9.922108342e-52
3.707319508e-51
1.373596348e-50
5.046771683e-50
1.838888741e-49
6.645115296e-49
2.381678809e-48
8.466791356e-48
2.985798577e-47
1.044580395e-46
3.625969773e-46
1.249014475e-45
4.27021205e-45
1.449319517e-44
4.884652e-44
1.635337318e-43
5.440944989e-43
1.799973243e-42
5.924711105e-42
1.941862744e-41
6.343398417e-41
2.067419257e-40
6.730403427e-40
2.191320682e-39
7.144383124e-39
2.335201506e-38
7.659798772e-38
2.523248705e-37
8.350634619e-37
2.776477075e-36
9.270743973e-36
3.106439942e-35
1.043534439e-34
3.510271097e-34
1.180941612e-33
3.968619101e-33
1.330684989e-32
4.44720537e-32
1.480082031e-31
4.901654235e-31
1.614314553e-30
5.284512487e-30
1.718786627e-29
5.552741814e-29
1.781402726e-28
5.674306327e-28
1.794350902e-27
5.632618164e-27
1.75508772e-26
5.428252368e-26
1.666435773e-25
5.077907665e-25
1.535866149e-24
4.611075658e-24
1.374175567e-23
4.065245393e-23
1.193852645e-22
3.480544052e-22
1.007374481e-21
2.894662676e-21
8.258196772e-21
2.339215874e-20
6.579184613e-20
1.837426897e-19
5.095720353e-19
1.403398376e-18
3.838495711e-18
1.042731469e-17
2.813490139e-17
7.540723462e-17
2.007768839e-16
5.3111803e-16
1.396034313e-15
3.646605532e-15
9.467604642e-15
2.443634092e-14
6.271616441e-14
1.601026368e-13
4.066739626e-13
1.028303466e-12
2.589762568e-12
6.500973867e-12
1.628001359e-11
4.072002047e-11
1.018717459e-10
2.554128942e-10
6.431794315e-10
1.63144693e-09
4.179329902e-09
1.084177408e-08
2.848997263e-08
7.570655094e-08
2.01844912e-07
5.340207601e-07
1.376084133e-06
3.397076953e-06
7.873097159e-06
1.706541443e-05
3.598911493e-65
2.769593042e-64
1.498682814e-63
7.156749543e-63
3.244204567e-62
1.435013139e-61
6.257973536e-61
2.699948769e-60
1.153962652e-59
4.887262667e-59
2.051555169e-58
8.535472229e-58
3.520097837e-57
1.438937516e-56
5.830734855e-56
2.342001247e-55
9.325662201e-55
3.681198837e-54
1.440615447e-53
5.589228154e-53
2.149962458e-52
8.199497318e-52
3.100628856e-51
1.162587654e-50
4.322574886e-50
1.593728421e-49
5.827367887e-49
2.113176325e-48
7.600216726e-48
2.711304821e-47
9.594924749e-47
3.368636243e-46
1.173471756e-45
4.056579009e-45
1.39187136e-44
4.741219277e-44
1.60384209e-43
5.389792102e-43
1.800200771e-42
5.97933556e-42
1.976368078e-41
6.506142894e-41
2.135207373e-40