/*--------------------------------*- C++ -*----------------------------------*\
  =========                 |
  \\      /  F ield         | OpenFOAM: The Open Source CFD Toolbox
   \\    /   O peration     | Website:  https://openfoam.org
    \\  /    A nd           | Version:  7
     \\/     M anipulation  |
\*---------------------------------------------------------------------------*/
FoamFile
{
    version     2.0;
    format      ascii;
    class       volScalarField;
    location    "0.361";
    object      Y_H;
}
// * * * * * * * * * * * * * * * * * * * * * * * * * * * * * * * * * * * * * //

dimensions      [0 0 0 0 0 0 0];

internalField   nonuniform List<scalar> 
35870
(
-6.285337735e-49
-2.153998306e-48
-5.860473343e-48
-1.40959092e-47
-3.142236074e-47
-6.662725259e-47
-1.365121318e-46
-2.7295274e-46
-5.359761544e-46
-1.037796537e-45
-1.986880395e-45
-3.768470935e-45
-7.092145e-45
-1.326327166e-44
-2.468781035e-44
-4.582371762e-44
-8.500716661e-44
-1.580334938e-43
-2.953404726e-43
-5.567045191e-43
-1.06182452e-42
-2.054850495e-42
-4.041459354e-42
-8.080718548e-42
-1.640544908e-41
-3.373355156e-41
-7.001760658e-41
-1.461512858e-40
-3.056752045e-40
-6.384840186e-40
-1.328199349e-39
-2.745522041e-39
-5.629539521e-39
-1.143443256e-38
-2.298401027e-38
-4.569007558e-38
-8.978359666e-38
-1.743468718e-37
-3.345002358e-37
-6.340399277e-37
-1.187381295e-36
-2.197211431e-36
-4.018416256e-36
-7.265634359e-36
-1.299292463e-35
-2.299246928e-35
-4.029029585e-35
-6.997032347e-35
-1.205494889e-34
-2.0628354e-34
-3.510720515e-34
-5.951283216e-34
-1.006451651e-33
-1.700666513e-33
-2.875409316e-33
-4.869857579e-33
-8.267302172e-33
-1.407049857e-32
-2.399827509e-32
-4.098085487e-32
-6.997504496e-32
-1.192844034e-31
-2.026597361e-31
-3.425796735e-31
-5.752899541e-31
-9.583981218e-31
-1.582069185e-30
-2.585221082e-30
-4.178485746e-30
-6.676099156e-30
-1.05392854e-29
-1.643409412e-29
-2.530704682e-29
-3.848251784e-29
-5.77873122e-29
-8.57125473e-29
-1.256343783e-28
-1.821336015e-28
-2.615195222e-28
-3.72841617e-28
-5.300280613e-28
-7.566713295e-28
-1.097009686e-27
-1.641296974e-27
-2.58420735e-27
-4.358101376e-27
-7.93332506e-27
-1.548425099e-26
-3.183804029e-26
-6.755275872e-26
-1.452770014e-25
-3.124700298e-25
-6.659329843e-25
-1.397205041e-24
-2.872865198e-24
-5.769466488e-24
-1.128824068e-23
-2.147730715e-23
-3.968582506e-23
-7.116325906e-23
-1.237983065e-22
-2.089732292e-22
-3.425031741e-22
-5.456541908e-22
-8.462899439e-22
-1.280276479e-21
-1.893327609e-21
-2.743512481e-21
-3.904632578e-21
-5.470723094e-21
-7.562012544e-21
-1.033241493e-20
-1.397778694e-20
-1.874188711e-20
-2.491482434e-20
-3.282905922e-20
-4.288618953e-20
-5.564636132e-20
-7.191154877e-20
-9.280081179e-20
-6.827444116e-49
-2.331112614e-48
-6.3199623e-48
-1.51557094e-47
-3.370591357e-47
-7.134597996e-47
-1.460031739e-46
-2.916915292e-46
-5.724709871e-46
-1.108107216e-45
-2.121135021e-45
-4.022901824e-45
-7.571374797e-45
-1.416175346e-44
-2.636771753e-44
-4.896355085e-44
-9.089016778e-44
-1.691199624e-43
-3.164283107e-43
-5.973295311e-43
-1.141316553e-42
-2.213111024e-42
-4.362099851e-42
-8.740838743e-42
-1.778251391e-41
-3.663356793e-41
-7.615828935e-41
-1.591746261e-40
-3.332448086e-40
-6.965739598e-40
-1.449747435e-39
-2.997646748e-39
-6.147304683e-39
-1.248607445e-38
-2.509523129e-38
-4.987750803e-38
-9.798681356e-38
-1.902166646e-37
-3.648173159e-37
-6.912343951e-37
-1.293950759e-36
-2.393378135e-36
-4.375258886e-36
-7.90740718e-36
-1.413472649e-35
-2.500353067e-35
-4.380015223e-35
-7.604718104e-35
-1.3100087e-34
-2.24166421e-34
-3.815662817e-34
-6.470439449e-34
-1.094849416e-33
-1.851437113e-33
-3.133291832e-33
-5.312460195e-33
-9.029499588e-33
-1.538654811e-32
-2.627374815e-32
-4.49139201e-32
-7.675798969e-32
-1.30933104e-31
-2.225429666e-31
-3.762542771e-31
-6.31795733e-31
-1.052226467e-30
-1.736096142e-30
-2.834991529e-30
-4.57834449e-30
-7.307783369e-30
-1.152371136e-29
-1.794717562e-29
-2.760045724e-29
-4.191035082e-29
-6.283967754e-29
-9.305745952e-29
-1.361702292e-28
-1.97056652e-28
-2.824177151e-28
-4.018473596e-28
-5.701111876e-28
-8.122762155e-28
-1.175541941e-27
-1.756701136e-27
-2.765656957e-27
-4.67107883e-27
-8.530377313e-27
-1.672570203e-26
-3.457417548e-26
-7.376879051e-26
-1.595266273e-25
-3.44958829e-25
-7.389062816e-25
-1.557628289e-24
-3.216456753e-24
-6.483928274e-24
-1.272687792e-23
-2.427722625e-23
-4.494610731e-23
-8.069598904e-23
-1.404574228e-22
-2.370533819e-22
-3.881869423e-22
-6.174799385e-22
-9.556205783e-22
-1.441777747e-21
-2.125508608e-21
-3.069472898e-21
-4.353308672e-21
-6.07917503e-21
-8.379481236e-21
-1.14267293e-20
-1.544362747e-20
-2.070802697e-20
-2.754333869e-20
-3.630169151e-20
-4.739714073e-20
-6.144732531e-20
-7.9381579e-20
-1.025090031e-19
-8.096294803e-49
-2.743831428e-48
-7.3866961e-48
-1.760919077e-47
-3.898211758e-47
-8.223493722e-47
-1.678879124e-46
-3.348808734e-46
-6.565648017e-46
-1.270104512e-45
-2.430455596e-45
-4.609140318e-45
-8.675724005e-45
-1.623269787e-44
-3.024111143e-44
-5.620674654e-44
-1.044709688e-43
-1.947363324e-43
-3.652100505e-43
-6.914360425e-43
-1.325747767e-42
-2.580916099e-42
-5.10855412e-42
-1.028008467e-41
-2.099812811e-41
-4.341367815e-41
-9.052886959e-41
-1.896745956e-40
-3.978452408e-40
-8.327358438e-40
-1.734710216e-39
-3.588784587e-39
-7.361242926e-39
-1.495146468e-38
-3.004379466e-38
-5.969044883e-38
-1.172054899e-37
-2.273859186e-37
-4.358015409e-37
-8.251039925e-37
-1.543300458e-36
-2.85220364e-36
-5.209606763e-36
-9.407460417e-36
-1.68027136e-35
-2.970145882e-35
-5.199778296e-35
-9.023889365e-35
-1.554091577e-34
-2.659368519e-34
-4.528168528e-34
-7.684065674e-34
-1.301635443e-33
-2.204423914e-33
-3.737627106e-33
-6.350735594e-33
-1.081931495e-32
-1.84798734e-32
-3.162656507e-32
-5.417207851e-32
-9.273177524e-32
-1.583722787e-31
-2.693803965e-31
-4.555656991e-31
-7.64833818e-31
-1.27302557e-30
-2.098320741e-30
-3.421920228e-30
-5.51712836e-30
-8.789382826e-30
-1.383017608e-29
-2.148815303e-29
-3.296095806e-29
-4.991186727e-29
-7.461691228e-29
-1.101536093e-28
-1.606557592e-28
-2.316811767e-28
-3.308209393e-28
-4.689035607e-28
-6.625939234e-28
-9.403136727e-28
-1.356032818e-27
-2.021575672e-27
-3.182034578e-27
-5.390391217e-27
-9.907216671e-27
-1.960189764e-26
-4.094624817e-26
-8.83211237e-26
-1.930555049e-25
-4.217693465e-25
-9.121972491e-25
-1.94012478e-24
-4.038651863e-24
-8.199013163e-24
-1.618969448e-23
-3.103165384e-23
-5.765782544e-23
-1.037602649e-22
-1.807901521e-22
-3.050393759e-22
-4.987227217e-22
-7.910316729e-22
-1.219237395e-21
-1.830071437e-21
-2.681731882e-21
-3.847097021e-21
-5.418949334e-21
-7.518389895e-21
-1.030727085e-20
-1.400371479e-20
-1.889561679e-20
-2.534115546e-20
-3.373650464e-20
-4.446316226e-20
-5.794577066e-20
-7.498500593e-20
-9.695895477e-20
-1.256690965e-19
-1.024605019e-48
-3.437465121e-48
-9.167746491e-48
-2.168559538e-47
-4.771899343e-47
-1.002271401e-46
-2.040017849e-46
-4.06098291e-46
-7.951774794e-46
-1.537079935e-45
-2.9402128e-45
-5.575357633e-45
-1.049630586e-44
-1.964811267e-44
-3.663298361e-44
-6.816999669e-44
-1.269291181e-43
-2.371649009e-43
-4.46169135e-43
-8.479912324e-43
-1.633401631e-42
-3.196242586e-42
-6.36098562e-42
-1.286977696e-41
-2.642138108e-41
-5.487194853e-41
-1.148544091e-40
-2.413662325e-40
-5.074260391e-40
-1.063836588e-39
-2.218518026e-39
-4.59253388e-39
-9.422406139e-39
-1.913669871e-38
-3.844201581e-38
-7.633780305e-38
-1.497949483e-37
-2.903830281e-37
-5.560453059e-37
-1.051741901e-36
-1.965191707e-36
-3.628052786e-36
-6.619605577e-36
-1.19410258e-35
-2.130657992e-35
-3.762867052e-35
-6.582602739e-35
-1.141747369e-34
-1.965779399e-34
-3.364101859e-34
-5.730964897e-34
-9.734606422e-34
-1.651431364e-33
-2.802391345e-33
-4.763062464e-33
-8.115544934e-33
-1.3866807e-32
-2.37552545e-32
-4.076783607e-32
-6.999968554e-32
-1.200602952e-31
-2.053335433e-31
-3.495422657e-31
-5.912637023e-31
-9.923157169e-31
-1.650236288e-30
-2.716445249e-30
-4.422155837e-30
-7.114551288e-30
-1.130618813e-29
-1.774096189e-29
-2.748022649e-29
-4.201279391e-29
-6.339287002e-29
-9.441184649e-29
-1.388160142e-28
-2.015973381e-28
-2.894116526e-28
-4.112802681e-28
-5.800076544e-28
-8.15299495e-28
-1.150977785e-27
-1.652007875e-27
-2.454856731e-27
-3.862823029e-27
-6.569536173e-27
-1.217732052e-26
-2.438211808e-26
-5.163118804e-26
-1.129420727e-25
-2.502711251e-25
-5.539028949e-25
-1.212514791e-24
-2.607542241e-24
-5.482045103e-24
-1.122604765e-23
-2.232962598e-23
-4.305440596e-23
-8.035491303e-23
-1.450365326e-22
-2.530697742e-22
-4.269179457e-22
-6.967214964e-22
-1.101275175e-21
-1.688910869e-21
-2.51864833e-21
-3.662223098e-21
-5.208206327e-21
-7.270093484e-21
-1.000085016e-20
-1.361453953e-20
-1.841066609e-20
-2.47879588e-20
-3.323167861e-20
-4.42373056e-20
-5.818359131e-20
-7.544493513e-20
-9.734894971e-20
-1.268997424e-19
-1.667521034e-19
-1.358215676e-48
-4.502056576e-48
-1.187716712e-47
-2.78465442e-47
-6.086540702e-47
-1.272243909e-46
-2.581000763e-46
-5.126807615e-46
-1.002520213e-45
-1.936349333e-45
-3.702559836e-45
-7.020568116e-45
-1.322032675e-44
-2.476117707e-44
-4.620997002e-44
-8.611622465e-44
-1.606744703e-43
-3.010544734e-43
-5.684054242e-43
-1.085123524e-42
-2.101086676e-42
-4.135228376e-42
-8.279483137e-42
-1.685086291e-41
-3.478464783e-41
-7.258818735e-41
-1.525433536e-40
-3.215794135e-40
-6.776554604e-40
-1.423095716e-39
-2.970916828e-39
-6.153731585e-39
-1.262800266e-38
-2.564402176e-38
-5.149471477e-38
-1.021986305e-37
-2.003913625e-37
-3.881241287e-37
-7.424722654e-37
-1.40285775e-36
-2.618290983e-36
-4.828142001e-36
-8.798912193e-36
-1.585404466e-35
-2.825805215e-35
-4.985716456e-35
-8.714920183e-35
-1.510772941e-34
-2.60054857e-34
-4.45116721e-34
-7.587781675e-34
-1.290391906e-33
-2.192934124e-33
-3.729860977e-33
-6.357002203e-33
-1.086502534e-32
-1.86252725e-32
-3.200932109e-32
-5.509548499e-32
-9.484037502e-32
-1.629889631e-31
-2.791321631e-31
-4.755084807e-31
-8.043981726e-31
-1.349304817e-30
-2.241483872e-30
-3.683841379e-30
-5.984781795e-30
-9.605080921e-30
-1.522131678e-29
-2.380970308e-29
-3.675425612e-29
-5.598308413e-29
-8.413672003e-29
-1.247746546e-28
-1.826330862e-28
-2.639637136e-28
-3.770190497e-28
-5.328820213e-28
-7.471891736e-28
-1.044005725e-27
-1.464954937e-27
-2.091078779e-27
-3.095338383e-27
-4.86826659e-27
-8.316662231e-27
-1.556655433e-26
-3.159454298e-26
-6.794238702e-26
-1.509689652e-25
-3.396293385e-25
-7.624221945e-25
-1.691019972e-24
-3.680269769e-24
-7.820278528e-24
-1.616413554e-23
-3.240780739e-23
-6.289450208e-23
-1.179783266e-22
-2.136984274e-22
-3.735907099e-22
-6.303513256e-22
-1.02704818e-21
-1.617751077e-21
-2.46775425e-21
-3.653987134e-21
-5.266750906e-21
-7.415417436e-21
-1.024229769e-20
-1.394912015e-20
-1.883403771e-20
-2.532329515e-20
-3.396270716e-20
-4.537697274e-20
-6.014666365e-20
-7.856338915e-20
-1.006975976e-19
-1.293455136e-19
-1.744920272e-19
-2.389395967e-19
-1.858106827e-48
-6.075634728e-48
-1.583913704e-47
-3.678601931e-47
-7.984231224e-47
-1.6606968e-46
-3.357927756e-46
-6.655870328e-46
-1.299820045e-45
-2.508719987e-45
-4.795427972e-45
-9.092784039e-45
-1.712780177e-44
-3.210065713e-44
-5.997149171e-44
-1.119420117e-43
-2.09333414e-43
-3.934193607e-43
-7.4569452e-43
-1.430377929e-42
-2.784949323e-42
-5.514456158e-42
-1.111003939e-41
-2.274884236e-41
-4.721955187e-41
-9.900813853e-41
-2.088798517e-40
-4.416886326e-40
-9.328617723e-40
-1.962108257e-39
-4.100237692e-39
-8.497304285e-39
-1.74394135e-38
-3.540791958e-38
-7.107035383e-38
-1.409600727e-37
-2.761748729e-37
-5.344071452e-37
-1.021250845e-36
-1.927441896e-36
-3.593159711e-36
-6.617840874e-36
-1.204598775e-35
-2.167930546e-35
-3.8598738e-35
-6.803645532e-35
-1.188356389e-34
-2.059057818e-34
-3.543818988e-34
-6.067457012e-34
-1.035135514e-33
-1.762792391e-33
-3.001630714e-33
-5.118181804e-33
-8.749103054e-33
-1.500233024e-32
-2.5804162e-32
-4.449097869e-32
-7.680368494e-32
-1.325321379e-31
-2.28186347e-31
-3.912540628e-31
-6.668575407e-31
-1.127950365e-30
-1.890650489e-30
-3.136736668e-30
-5.145964166e-30
-8.341468408e-30
-1.335208972e-29
-2.109588267e-29
-3.288924635e-29
-5.058588287e-29
-7.674917733e-29
-1.148614797e-28
-1.695766409e-28
-2.470289979e-28
-3.552304503e-28
-5.046376112e-28
-7.091470578e-28
-9.882310143e-28
-1.371859407e-27
-1.912322983e-27
-2.712981261e-27
-3.998255094e-27
-6.283459805e-27
-1.078440973e-26
-2.039621778e-26
-4.200057647e-26
-9.18014698e-26
-2.073551604e-25
-4.738489972e-25
-1.079405378e-24
-2.426509324e-24
-5.345849879e-24
-1.148429851e-23
-2.39672075e-23
-4.845514627e-23
-9.470454962e-23
-1.786694952e-22
-3.250214579e-22
-5.697275689e-22
-9.621217101e-22
-1.565893103e-21
-2.458760286e-21
-3.731118738e-21
-5.484632275e-21
-7.83293418e-21
-1.091008555e-20
-1.489549183e-20
-2.006186785e-20
-2.683390824e-20
-3.5808749e-20
-4.763168006e-20
-6.292875386e-20
-8.229383893e-20
-1.061051977e-19
-1.333696793e-19
-1.69771119e-19
-2.573264793e-19
-3.866882577e-19
-2.595034661e-48
-8.358561354e-48
-2.151687287e-47
-4.948621522e-47
-1.066506467e-46
-2.207570454e-46
-4.449537599e-46
-8.801936337e-46
-1.716861042e-45
-3.311458605e-45
-6.328216003e-45
-1.199988984e-44
-2.261232971e-44
-4.241069923e-44
-7.932636205e-44
-1.483267372e-43
-2.780449957e-43
-5.242362271e-43
-9.977137318e-43
-1.923295159e-42
-3.765999919e-42
-7.502972055e-42
-1.521096374e-41
-3.133213365e-41
-6.538606151e-41
-1.37728182e-40
-2.916478256e-40
-6.184695076e-40
-1.308951856e-39
-2.757051897e-39
-5.766433201e-39
-1.195527914e-38
-2.453737633e-38
-4.980640606e-38
-9.992236685e-38
-1.980512848e-37
-3.877083974e-37
-7.495108498e-37
-1.430801291e-36
-2.697345647e-36
-5.022478012e-36
-9.239177767e-36
-1.679721935e-35
-3.019513465e-35
-5.370325619e-35
-9.457357181e-35
-1.650703068e-34
-2.858979158e-34
-4.920352341e-34
-8.427806321e-34
-1.439203312e-33
-2.454697624e-33
-4.18873116e-33
-7.161471603e-33
-1.227984933e-32
-2.11269482e-32
-3.646114808e-32
-6.306591554e-32
-1.091747861e-31
-1.888205233e-31
-3.25636011e-31
-5.588854633e-31
-9.528510801e-31
-1.611137953e-30
-2.69803726e-30
-4.46965459e-30
-7.318305879e-30
-1.18343743e-29
-1.889043218e-29
-2.975277106e-29
-4.622537895e-29
-7.083062175e-29
-1.070295158e-28
-1.594841181e-28
-2.343681834e-28
-3.397372352e-28
-4.85989872e-28
-6.865271171e-28
-9.589516245e-28
-1.327736916e-27
-1.830548009e-27
-2.533737668e-27
-3.57061944e-27
-5.235947931e-27
-8.218379818e-27
-1.416942776e-26
-2.708421825e-26
-5.66079634e-26
-1.258015092e-25
-2.889093737e-25
-6.707136424e-25
-1.550417998e-24
-3.532588338e-24
-7.878624576e-24
-1.711391217e-23
-3.607376671e-23
-7.3585121e-23
-1.449598149e-22
-2.75335566e-22
-5.035860457e-22
-8.8606384e-22
-1.49907231e-21
-2.439026544e-21
-3.819982377e-21
-5.769080008e-21
-8.421384768e-21
-1.191797114e-20
-1.641942915e-20
-2.215067717e-20
-2.948100521e-20
-3.901468546e-20
-5.154106426e-20
-6.746279566e-20
-8.684576096e-20
-1.103741527e-19
-1.415123032e-19
-1.770198065e-19
-2.171682364e-19
-4.422503916e-19
-7.220576296e-19
-3.671542376e-48
-1.163346425e-47
-2.955200168e-47
-6.729321003e-47
-1.440178584e-46
-2.967176785e-46
-5.962802962e-46
-1.177385302e-45
-2.294097732e-45
-4.422364286e-45
-8.449602814e-45
-1.602458497e-44
-3.020966209e-44
-5.670558031e-44
-1.061988587e-43
-1.989397178e-43
-3.738679756e-43
-7.072681702e-43
-1.351754046e-42
-2.619024507e-42
-5.157876398e-42
-1.033921497e-41
-2.109016611e-41
-4.369459409e-41
-9.165521497e-41
-1.938985825e-40
-4.120152332e-40
-8.760211221e-40
-1.857546954e-39
-3.917479514e-39
-8.199531392e-39
-1.700498634e-38
-3.490000334e-38
-7.081822113e-38
-1.420015096e-37
-2.812552086e-37
-5.5011901e-37
-1.062444643e-36
-2.026022028e-36
-3.815116168e-36
-7.095385478e-36
-1.30367749e-35
-2.367330701e-35
-4.250756006e-35
-7.552359011e-35
-1.328849988e-34
-2.317930955e-34
-4.01329818e-34
-6.907460514e-34
-1.183803612e-33
-2.023820936e-33
-3.45773139e-33
-5.913883027e-33
-1.01393798e-32
-1.744146765e-32
-3.010833555e-32
-5.213440041e-32
-9.045307687e-32
-1.569988455e-31
-2.72095407e-31
-4.69914808e-31
-8.0710078e-31
-1.376127006e-30
-2.325541752e-30
-3.889984653e-30
-6.433630915e-30
-1.051167719e-29
-1.695527112e-29
-2.698588172e-29
-4.236524175e-29
-6.558638242e-29
-1.001095809e-28
-1.506445214e-28
-2.234793286e-28
-3.268610263e-28
-4.714329329e-28
-6.707576384e-28
-9.420688779e-28
-1.307712293e-27
-1.798475696e-27
-2.461724185e-27
-3.38177774e-27
-4.731039197e-27
-6.897952879e-27
-1.080622481e-26
-1.870766963e-26
-3.613614857e-26
-7.666007309e-26
-1.73215043e-25
-4.044129292e-25
-9.536242199e-25
-2.236553008e-24
-5.164345173e-24
-1.166011776e-23
-2.561673385e-23
-5.456926208e-23
-1.124181543e-22
-2.23501629e-22
-4.280397146e-22
-7.883398371e-22
-1.394261112e-21
-2.365822114e-21
-3.851227057e-21
-6.020206192e-21
-9.053916323e-21
-1.313321121e-20
-1.84314115e-20
-2.513633239e-20
-3.352514923e-20
-4.408975786e-20
-5.769319429e-20
-7.535334183e-20
-9.611566701e-20
-1.17922564e-19
-1.429817251e-19
-1.960518015e-19
-2.650420402e-19
-2.827336529e-19
-9.611682785e-19
-1.121106038e-18
-5.233669262e-48
-1.629052664e-47
-4.081264108e-47
-9.200788198e-47
-1.955733287e-46
-4.01162749e-46
-8.039644154e-46
-1.584864878e-45
-3.085195994e-45
-5.944669578e-45
-1.135695929e-44
-2.154241658e-44
-4.063226513e-44
-7.633620857e-44
-1.431566076e-43
-2.686909893e-43
-5.06288544e-43
-9.611031045e-43
-1.844878995e-42
-3.592915188e-42
-7.116790723e-42
-1.435286222e-41
-2.945355306e-41
-6.136312708e-41
-1.293481981e-40
-2.74752341e-40
-5.856955499e-40
-1.248293423e-39
-2.651422305e-39
-5.597881041e-39
-1.172388359e-38
-2.431921179e-38
-4.990519183e-38
-1.012288361e-37
-2.028644963e-37
-4.015075704e-37
-7.846382494e-37
-1.513876767e-36
-2.883780695e-36
-5.424157666e-36
-1.007604746e-35
-1.849137112e-35
-3.353914118e-35
-6.015626864e-35
-1.0677511e-34
-1.877212721e-34
-3.272626359e-34
-5.664978103e-34
-9.752120767e-34
-1.672493027e-33
-2.86291775e-33
-4.900495211e-33
-8.401972744e-33
-1.444732412e-32
-2.493252219e-32
-4.318452219e-32
-7.502016313e-32
-1.305425491e-31
-2.271376836e-31
-3.943807068e-31
-6.81907203e-31
-1.171789993e-30
-1.997618802e-30
-3.373239367e-30
-5.635064319e-30
-9.30288584e-30
-1.516525732e-29
-2.439636439e-29
-3.87117935e-29
-6.057032961e-29
-9.342743716e-29
-1.42042919e-28
-2.128410097e-28
-3.143199582e-28
-4.575107902e-28
-6.564828398e-28
-9.289112335e-28
-1.296894965e-27
-1.788683383e-27
-2.442775317e-27
-3.318344321e-27
-4.52193824e-27
-6.275534788e-27
-9.089177231e-27
-1.419754513e-26
-2.466001913e-26
-4.811293084e-26
-1.035661453e-25
-2.378513519e-25
-5.643563195e-25
-1.351219331e-24
-3.214250374e-24
-7.520499394e-24
-1.719149384e-23
-3.821872209e-23
-8.235961617e-23
-1.71609073e-22
-3.449733425e-22
-6.67509922e-22
-1.240295605e-21
-2.208246096e-21
-3.761828802e-21
-6.130252705e-21
-9.56764008e-21
-1.433541297e-20
-2.068108451e-20
-2.882002074e-20
-3.897150652e-20
-5.148231628e-20
-6.702189862e-20
-8.699107286e-20
-1.131380065e-19
-1.40194821e-19
-1.59386548e-19
-1.815972243e-19
-3.393346102e-19
-4.266488477e-19
-4.88876291e-19
-3.085248637e-18
-1.390010896e-18
-7.486072781e-48
-2.285753755e-47
-5.644761786e-47
-1.259862358e-46
-2.660410961e-46
-5.434604525e-46
-1.086432504e-45
-2.138598066e-45
-4.15983837e-45
-8.012458016e-45
-1.530676983e-44
-2.904179869e-44
-5.480783927e-44
-1.030646232e-43
-1.935568401e-43
-3.640226556e-43
-6.878066429e-43
-1.310361229e-42
-2.526470055e-42
-4.945997406e-42
-9.853534053e-42
-1.999144466e-41
-4.126443542e-41
-8.643053499e-41
-1.830327519e-40
-3.9026277e-40
-8.343947391e-40
-1.78223951e-39
-3.791294405e-39
-8.012103674e-39
-1.678837472e-38
-3.482860928e-38
-7.145754305e-38
-1.448862962e-37
-2.901803917e-37
-5.738849844e-37
-1.120502982e-36
-2.159740062e-36
-4.109660526e-36
-7.721187412e-36
-1.432636453e-35
-2.626074303e-35
-4.757677359e-35
-8.524356635e-35
-1.511627551e-34
-2.655621362e-34
-4.627444428e-34
-8.009173437e-34
-1.379195152e-33
-2.367316093e-33
-4.058063662e-33
-6.960283971e-33
-1.196423193e-32
-2.063471461e-32
-3.572730308e-32
-6.208795581e-32
-1.08200018e-31
-1.888029631e-31
-3.292478744e-31
-5.726017235e-31
-9.909962064e-31
-1.703387265e-30
-2.902794429e-30
-4.897069351e-30
-8.168477936e-30
-1.345874831e-29
-2.188747071e-29
-3.511263685e-29
-5.554229952e-29
-8.660531712e-29
-1.330862544e-28
-2.015240955e-28
-3.006676007e-28
-4.419776986e-28
-6.401713112e-28
-9.137731235e-28
-1.285674463e-27
-1.784025097e-27
-2.444182277e-27
-3.313699203e-27
-4.465535477e-27
-6.032711177e-27
-8.298041352e-27
-1.192476634e-26
-1.854749677e-26
-3.228217131e-26
-6.355909745e-26
-1.387274479e-25
-3.236328902e-25
-7.799227647e-25
-1.895026176e-24
-4.570430589e-24
-1.083436123e-23
-2.508330095e-23
-5.647773313e-23
-1.233122064e-22
-2.604403197e-22
-5.306997849e-22
-1.040090838e-21
-1.953738742e-21
-3.506313078e-21
-5.999693182e-21
-9.785806289e-21
-1.524251992e-20
-2.275091103e-20
-3.266293785e-20
-4.525234269e-20
-6.078673451e-20
-7.982300246e-20
-1.035894235e-19
-1.354253365e-19
-1.799070592e-19
-2.189849521e-19
-2.288318335e-19
-2.522638328e-19
-2.004863006e-18
-5.894615799e-19
-3.436119282e-19
-1.232365291e-17
-1.574578743e-18
-1.071063029e-47
-3.203278514e-47
-7.794146501e-47
-1.722381322e-46
-3.614285801e-46
-7.355060383e-46
-1.467072843e-45
-2.884237089e-45
-5.606492367e-45
-1.079602023e-44
-2.062496415e-44
-3.914394315e-44
-7.391791117e-44
-1.391393845e-43
-2.61695913e-43
-4.932089936e-43
-9.345509345e-43
-1.786986623e-42
-3.461001156e-42
-6.811057996e-42
-1.364698209e-41
-2.785065476e-41
-5.781183057e-41
-1.217093678e-40
-2.58868204e-40
-5.53911667e-40
-1.187505496e-39
-2.541511201e-39
-5.413778035e-39
-1.145024496e-38
-2.400177189e-38
-4.979464013e-38
-1.021377265e-37
-2.069992452e-37
-4.143190989e-37
-8.187504723e-37
-1.597153288e-36
-3.075389458e-36
-5.845716495e-36
-1.097051436e-35
-2.033193122e-35
-3.722635956e-35
-6.736842364e-35
-1.205807869e-34
-2.136375824e-34
-3.75063575e-34
-6.53292701e-34
-1.130691178e-33
-1.947928121e-33
-3.346795247e-33
-5.74609908e-33
-9.87685045e-33
-1.702324624e-32
-2.945059401e-32
-5.115920764e-32
-8.919744869e-32
-1.559161328e-31
-2.727756276e-31
-4.766575665e-31
-8.301197352e-31
-1.437704813e-30
-2.471346425e-30
-4.209117712e-30
-7.092819872e-30
-1.181159515e-29
-1.942036635e-29
-3.150329419e-29
-5.039322524e-29
-7.945772263e-29
-1.234600015e-28
-1.889979675e-28
-2.85015721e-28
-4.233712128e-28
-6.194393661e-28
-8.927336679e-28
-1.26745948e-27
-1.773006868e-27
-2.444812091e-27
-3.326463687e-27
-4.475619708e-27
-5.980466879e-27
-8.004040983e-27
-1.090081466e-26
-1.552013375e-26
-2.399344565e-26
-4.177246519e-26
-8.287450028e-26
-1.832079986e-25
-4.337343647e-25
-1.060748737e-24
-2.613745618e-24
-6.388734799e-24
-1.534396397e-23
-3.600009013e-23
-8.221376403e-23
-1.822839121e-22
-3.913774644e-22
-8.10955238e-22
-1.61429363e-21
-3.071472172e-21
-5.560772494e-21
-9.553655508e-21
-1.55760069e-20
-2.417413295e-20
-3.590390704e-20
-5.128292599e-20
-7.061225575e-20
-9.423029386e-20
-1.237929345e-19
-1.628839652e-19
-2.219890908e-19
-3.067151956e-19
-3.942052315e-19
-8.437883506e-19
-5.857325409e-19
-6.737139877e-19
-1.014589338e-18
-3.957306373e-18
-2.124153761e-16
-3.579578017e-17
-1.528787065e-47
-4.471660997e-47
-1.071604671e-46
-2.345054563e-46
-4.891748771e-46
-9.920139603e-46
-1.974812555e-45
-3.878253215e-45
-7.534618963e-45
-1.450614391e-44
-2.771524157e-44
-5.261906248e-44
-9.942960848e-44
-1.873587033e-43
-3.529367141e-43
-6.666197384e-43
-1.266836091e-42
-2.431454108e-42
-4.730709024e-42
-9.358647498e-42
-1.885775252e-41
-3.870555379e-41
-8.078176825e-41
-1.708941775e-40
-3.649719701e-40
-7.835092509e-40
-1.683921078e-39
-3.610419718e-39
-7.699904526e-39
-1.629671874e-38
-3.417051258e-38
-7.088762055e-38
-1.453601924e-37
-2.944531396e-37
-5.889743812e-37
-1.162962138e-36
-2.266542716e-36
-4.359954316e-36
-8.278560848e-36
-1.551886105e-35
-2.872887089e-35
-5.254142382e-35
-9.498165027e-35
-1.698380838e-34
-3.006595842e-34
-5.275171783e-34
-9.185536048e-34
-1.589922825e-33
-2.740621413e-33
-4.713997384e-33
-8.107258461e-33
-1.396724041e-32
-2.414022519e-32
-4.189391714e-32
-7.301335953e-32
-1.277079749e-31
-2.238799784e-31
-3.926295479e-31
-6.873506513e-31
-1.198449337e-30
-2.076647682e-30
-3.569117685e-30
-6.074248331e-30
-1.022250301e-29
-1.699300868e-29
-2.787740225e-29
-4.510392442e-29
-7.193517139e-29
-1.130515151e-28
-1.750279072e-28
-2.669032517e-28
-4.0082761e-28
-5.927561452e-28
-8.631514085e-28
-1.237655544e-27
-1.747576066e-27
-2.43018455e-27
-3.32938909e-27
-4.497831657e-27
-6.003656024e-27
-7.950551247e-27
-1.05333139e-26
-1.418635149e-26
-1.997479295e-26
-3.062084069e-26
-5.319330405e-26
-1.061170359e-25
-2.372092075e-25
-5.691473993e-25
-1.411007152e-24
-3.522968357e-24
-8.723247933e-24
-2.123019689e-23
-5.053116534e-23
-1.172891992e-22
-2.648990516e-22
-5.803421744e-22
-1.227246609e-21
-2.488446763e-21
-4.803391335e-21
-8.773411585e-21
-1.511203277e-20
-2.456196954e-20
-3.786759027e-20
-5.582630717e-20
-7.918651963e-20
-1.078629166e-19
-1.421808724e-19
-1.891045704e-19
-2.58905321e-19
-3.835659724e-19
-5.300376979e-19
-2.128539052e-18
-7.279285624e-19
-3.279366971e-18
-2.178237289e-19
-1.695327489e-19
3.615533783e-17
1.311929602e-17
6.212192942e-17
-2.171927147e-47
-6.203404071e-47
-1.463740202e-46
-3.172900055e-46
-6.582015454e-46
-1.330620475e-45
-2.644324771e-45
-5.188350141e-45
-1.007549146e-44
-1.939574013e-44
-3.706233062e-44
-7.039301953e-44
-1.331095387e-43
-2.511002302e-43
-4.73774631e-43
-8.968700305e-43
-1.709511458e-42
-3.293593864e-42
-6.437560779e-42
-1.280178575e-41
-2.593942599e-41
-5.353714971e-41
-1.123196358e-40
-2.387060588e-40
-5.117502623e-40
-1.101940296e-39
-2.373693849e-39
-5.097559875e-39
-1.08828929e-38
-2.304671453e-38
-4.833313931e-38
-1.002571458e-37
-2.055167758e-37
-4.160957522e-37
-8.317225668e-37
-1.640949941e-36
-3.195181859e-36
-6.140159323e-36
-1.164640543e-35
-2.180816955e-35
-4.03268374e-35
-7.36717441e-35
-1.330413367e-34
-2.376709099e-34
-4.20416886e-34
-7.372362046e-34
-1.283446254e-33
-2.221928473e-33
-3.832646976e-33
-6.600522638e-33
-1.137254493e-32
-1.963955193e-32
-3.404079776e-32
-5.926191417e-32
-1.036168708e-31
-1.817976697e-31
-3.195775659e-31
-5.61711079e-31
-9.849396272e-31
-1.71894852e-30
-2.979405841e-30
-5.118930645e-30
-8.703857959e-30
-1.462682593e-29
-2.426796063e-29
-3.971955268e-29
-6.409048491e-29
-1.019063663e-28
-1.596182202e-28
-2.462251496e-28
-3.74002813e-28
-5.593082401e-28
-8.234069924e-28
-1.193257102e-27
-1.70217795e-27
-2.390146302e-27
-3.303699916e-27
-4.496163748e-27
-6.029427959e-27
-7.981300133e-27
-1.046919151e-26
-1.371802205e-26
-1.824470499e-26
-2.534936526e-26
-3.8417392e-26
-6.636766854e-26
-1.327402781e-25
-2.99352701e-25
-7.266557743e-25
-1.82365861e-24
-4.609281717e-24
-1.155682619e-23
-2.851369465e-23
-6.895790355e-23
-1.631524483e-22
-3.768467198e-22
-8.461473642e-22
-1.833417836e-21
-3.797229261e-21
-7.444945779e-21
-1.371183456e-20
-2.362380593e-20
-3.812630516e-20
-5.81311813e-20
-8.472546503e-20
-1.189104244e-19
-1.580958398e-19
-2.017803961e-19
-2.801050812e-19
-4.25682618e-19
-7.623082931e-19
-9.917395605e-19
-5.429823218e-19
-8.26291068e-18
-4.64154852e-19
1.663638503e-18
-3.72543234e-17
3.833269472e-17
1.482486376e-16
5.183932395e-16
-3.064630735e-47
-8.533635504e-47
-1.982281951e-46
-4.257882748e-46
-8.787831888e-46
-1.771633865e-45
-3.515545434e-45
-6.892531225e-45
-1.338040774e-44
-2.575646003e-44
-4.922568547e-44
-9.353582366e-44
-1.770033365e-43
-3.342860424e-43
-6.317812553e-43
-1.198738854e-42
-2.29186819e-42
-4.432563707e-42
-8.703550189e-42
-1.739732999e-41
-3.544297059e-41
-7.354486709e-41
-1.550627415e-40
-3.309734961e-40
-7.120913178e-40
-1.537612119e-39
-3.319045739e-39
-7.138023543e-39
-1.525288195e-38
-3.231619752e-38
-6.778114379e-38
-1.405760469e-37
-2.880622524e-37
-5.829038118e-37
-1.164342296e-36
-2.29531822e-36
-4.465253504e-36
-8.572352692e-36
-1.624268977e-35
-3.03819935e-35
-5.612013042e-35
-1.024148741e-34
-1.847625046e-34
-3.297754011e-34
-5.829244699e-34
-1.021728986e-33
-1.778477226e-33
-3.079824869e-33
-5.316668115e-33
-9.168722296e-33
-1.582813679e-32
-2.740171379e-32
-4.763240775e-32
-8.318416892e-32
-1.459045431e-31
-2.567520505e-31
-4.524991686e-31
-7.969587102e-31
-1.399395696e-30
-2.444070975e-30
-4.236617088e-30
-7.275199935e-30
-1.235700846e-29
-2.073341466e-29
-3.433048586e-29
-5.605378007e-29
-9.01973507e-29
-1.429752891e-28
-2.231883283e-28
-3.430259465e-28
-5.189835183e-28
-7.728423085e-28
-1.13262419e-27
-1.633415555e-27
-2.317938822e-27
-3.236465663e-27
-4.446023669e-27
-6.009784769e-27
-7.99801793e-27
-1.049547315e-26
-1.362829576e-26
-1.764443872e-26
-2.313595156e-26
-3.163669589e-26
-4.721966027e-26
-8.076348339e-26
-1.61302344e-25
-3.6586971e-25
-8.964729682e-25
-2.273641711e-24
-5.810547391e-24
-1.474637285e-23
-3.691067504e-23
-9.089893531e-23
-2.200411096e-22
-5.222975509e-22
-1.207849761e-21
-2.692419169e-21
-5.71087303e-21
-1.138708878e-20
-2.114149948e-20
-3.634392859e-20
-5.797641466e-20
-8.696161725e-20
-1.245113967e-19
-1.723506626e-19
-2.177870188e-19
-2.531678673e-19
-4.143275245e-19
-9.647388474e-19
-2.486642221e-18
-4.72703892e-18
3.476777409e-20
1.45311553e-19
-1.316041637e-17
1.731345364e-17
7.499408403e-17
3.053074508e-16
1.183491262e-15
4.283513693e-15
-4.285892748e-47
-1.161639394e-46
-2.656405248e-46
-5.656762562e-46
-1.162126908e-45
-2.337212328e-45
-4.632065432e-45
-9.07597024e-45
-1.761464435e-44
-3.3907114e-44
-6.48174924e-44
-1.232202226e-43
-2.333583156e-43
-4.412393269e-43
-8.35341401e-43
-1.588689554e-42
-3.046770619e-42
-5.915284267e-42
-1.166788959e-41
-2.344094439e-41
-4.800771444e-41
-1.001302506e-40
-2.121105659e-40
-4.545771146e-40
-9.812601063e-40
-2.124247676e-39
-4.593946137e-39
-9.892504993e-39
-2.115505746e-38
-4.483791878e-38
-9.405036562e-38
-1.950203216e-37
-3.994719367e-37
-8.078920003e-37
-1.612620461e-36
-3.17643729e-36
-6.173766056e-36
-1.184077984e-35
-2.241262092e-35
-4.187868681e-35
-7.727453777e-35
-1.408751932e-34
-2.539040743e-34
-4.528054085e-34
-7.998761317e-34
-1.401443561e-33
-2.439313518e-33
-4.225840411e-33
-7.301575722e-33
-1.261014511e-32
-2.181328673e-32
-3.785897164e-32
-6.600197062e-32
-1.156219297e-31
-2.03422893e-31
-3.589781728e-31