/*--------------------------------*- C++ -*----------------------------------*\
  =========                 |
  \\      /  F ield         | OpenFOAM: The Open Source CFD Toolbox
   \\    /   O peration     | Website:  https://openfoam.org
    \\  /    A nd           | Version:  7
     \\/     M anipulation  |
\*---------------------------------------------------------------------------*/
FoamFile
{
    version     2.0;
    format      ascii;
    class       volScalarField;
    location    "0.361";
    object      Y_H2O2;
}
// * * * * * * * * * * * * * * * * * * * * * * * * * * * * * * * * * * * * * //

dimensions      [0 0 0 0 0 0 0];

internalField   nonuniform List<scalar> 
35870
(
6.544860139e-73
5.892408435e-72
3.677614252e-71
1.93613144e-70
9.261510236e-70
4.184070266e-69
1.825363295e-68
7.787629922e-68
3.271986447e-67
1.358678909e-66
5.586389445e-66
2.27631694e-65
9.197205272e-65
3.685837443e-64
1.465607722e-63
5.784007576e-63
2.266437293e-62
8.821630708e-62
3.412448497e-61
1.31260842e-60
5.024007415e-60
1.914664962e-59
7.270328179e-59
2.752355245e-58
1.039405854e-57
3.91720748e-57
1.47362955e-56
5.533988333e-56
2.074208437e-55
7.756435522e-55
2.892139554e-54
1.074506249e-53
3.974420725e-53
1.462360298e-52
5.347948215e-52
1.94219543e-51
6.999188498e-51
2.501307079e-50
8.859515104e-50
3.108701465e-49
1.080238794e-48
3.716361269e-48
1.265599213e-47
4.265889919e-47
1.423119915e-46
4.698922171e-46
1.535699659e-45
4.968305694e-45
1.591366463e-44
5.047259015e-44
1.585350375e-43
4.932403156e-43
1.520327653e-42
4.643475649e-42
1.405586715e-41
4.217545872e-41
1.2546603e-40
3.701090431e-40
1.082778312e-39
3.142103942e-39
9.045510693e-39
2.583646278e-38
7.322709474e-38
2.059667035e-37
5.749802299e-37
1.59322708e-36
4.382352893e-36
1.196671357e-35
3.24422213e-35
8.732573426e-35
2.333971811e-34
6.194333275e-34
1.63253127e-33
4.272848916e-33
1.110664196e-32
2.867322768e-32
7.352211943e-32
1.872518992e-31
4.737189912e-31
1.190479781e-30
2.972000226e-30
7.370888333e-30
1.816158839e-29
4.44600739e-29
1.081406994e-28
2.613558747e-28
6.276571192e-28
1.497906149e-27
3.552596074e-27
8.374059847e-27
1.961952641e-26
4.569204556e-26
1.05787524e-25
2.435109235e-25
5.573753543e-25
1.268780525e-24
2.872819899e-24
6.471431407e-24
1.450649497e-23
3.236785452e-23
7.191041671e-23
1.591330581e-22
3.509201817e-22
7.715467452e-22
1.692312501e-21
3.705722346e-21
8.107474925e-21
1.773879799e-20
3.885242251e-20
8.527699464e-20
1.877513541e-19
4.149700557e-19
9.209922778e-19
2.051872054e-18
4.582737158e-18
1.023840362e-17
2.281447629e-17
5.057048032e-17
1.114190469e-16
2.452502271e-16
1.172986146e-72
1.048959919e-71
6.504999802e-71
3.407925424e-70
1.625455789e-69
7.335895887e-69
3.202083384e-68
1.368288378e-67
5.76188908e-67
2.398901339e-66
9.891447088e-66
4.042402104e-65
1.638217198e-64
6.585378658e-64
2.626722925e-63
1.039916802e-62
4.088045164e-62
1.596450645e-61
6.196531632e-61
2.391891888e-60
9.188277147e-60
3.514875589e-59
1.339871157e-58
5.09285595e-58
1.931261951e-57
7.309246311e-57
2.761545561e-56
1.041551931e-55
3.920732053e-55
1.472393643e-54
5.512983134e-54
2.056491616e-53
7.636214713e-53
2.820171297e-52
1.035029055e-51
3.771642894e-51
1.363608934e-50
4.888228663e-50
1.736526248e-49
6.110671369e-49
2.129252244e-48
7.344947405e-48
2.507859059e-47
8.47484319e-47
2.834413818e-46
9.382304586e-46
3.073983389e-45
9.969771491e-45
3.201357124e-44
1.017904346e-43
3.205309601e-43
9.997812845e-43
3.089548503e-42
9.460690323e-42
2.871243349e-41
8.638053321e-41
2.576539496e-40
7.620885543e-40
2.235580655e-39
6.505124917e-39
1.877850054e-38
5.378499731e-38
1.528645635e-37
4.311661499e-37
1.207029205e-36
3.354003489e-36
9.251603803e-36
2.533439369e-35
6.887688401e-35
1.859229987e-34
4.983270884e-34
1.326297627e-33
3.505375206e-33
9.200591441e-33
2.398305315e-32
6.208972886e-32
1.596542376e-31
4.077608748e-31
1.034462432e-30
2.606924925e-30
6.52627819e-30
1.623096431e-29
4.010361909e-29
9.844706288e-29
2.401167406e-28
5.819214619e-28
1.401367477e-27
3.353596803e-27
7.975697758e-27
1.885195571e-26
4.429027648e-26
1.034340435e-25
2.40140621e-25
5.543262769e-25
1.272391503e-24
2.904685588e-24
6.595961481e-24
1.490218252e-23
3.350580381e-23
7.499209243e-23
1.671402554e-22
3.711011655e-22
8.211990666e-22
1.812141295e-21
3.990209631e-21
8.773865133e-21
1.928154891e-20
4.239181812e-20
9.333814812e-20
2.060469584e-19
4.564846627e-19
1.015759123e-18
2.27060801e-18
5.096510996e-18
1.146784902e-17
2.580331977e-17
5.786137416e-17
1.28901775e-16
2.8492427e-16
6.277510202e-16
2.989380618e-72
2.648367929e-71
1.628141066e-70
8.474560924e-70
4.026994986e-69
1.815279773e-68
7.930160686e-68
3.396014956e-67
1.434367925e-66
5.992439963e-66
2.480008014e-65
1.017383599e-64
4.13907768e-64
1.670405594e-63
6.689470685e-63
2.659113692e-62
1.049664331e-61
4.116482924e-61
1.604748212e-60
6.222234381e-60
2.401326637e-59
9.230116617e-59
3.535988844e-58
1.350908997e-57
5.149700653e-57
1.959451207e-56
7.443255645e-56
2.822580602e-55
1.068245086e-54
4.032986704e-54
1.517853658e-53
5.690306157e-53
2.12308522e-52
7.876903349e-52
2.903555835e-51
1.062464974e-50
3.856517559e-50
1.387717404e-49
4.947733575e-49
1.747148102e-48
6.108483048e-48
2.114067389e-47
7.241422385e-47
2.454807062e-46
8.235599858e-46
2.734484468e-45
8.986582002e-45
2.92349182e-44
9.416347839e-44
3.003204209e-43
9.48603482e-43
2.968016001e-42
9.20054794e-42
2.826250448e-41
8.604765896e-41
2.597038074e-40
7.771493611e-40
2.306161499e-39
6.787374022e-39
1.981544707e-38
5.7392419e-38
1.649330324e-37
4.703406781e-37
1.331112704e-36
3.739006655e-36
1.042492826e-35
2.885356706e-35
7.92805766e-35
2.162736393e-34
5.857823007e-34
1.575393962e-33
4.207122186e-33
1.115694931e-32
2.938261325e-32
7.684920688e-32
1.996232579e-31
5.150201889e-31
1.319768062e-30
3.359316814e-30
8.493857616e-30
2.133427858e-29
5.323388471e-29
1.319636682e-28
3.250095788e-28
7.953060014e-28
1.933707413e-27
4.671857287e-27
1.121648138e-26
2.676212187e-26
6.346188922e-26
1.495785914e-25
3.504532636e-25
8.162825454e-25
1.890399255e-24
4.353407276e-24
9.971000679e-24
2.271763112e-23
5.149907268e-23
1.161873234e-22
2.609609347e-22
5.83716773e-22
1.30084479e-21
2.889717521e-21
6.402518347e-21
1.415791232e-20
3.127196825e-20
6.905615306e-20
1.52617585e-19
3.379330797e-19
7.505941927e-19
1.67401122e-18
3.751878496e-18
8.45108427e-18
1.911943137e-17
4.335989187e-17
9.828541488e-17
2.21807425e-16
4.965439847e-16
1.100569769e-15
2.424842704e-15
8.587846706e-72
7.52946066e-71
4.586156346e-70
2.371219083e-69
1.122649642e-68
5.055620559e-68
2.210851549e-67
9.489809331e-67
4.020631333e-66
1.685600227e-65
7.001868811e-65
2.883355381e-64
1.177607847e-63
4.771153593e-63
1.91833406e-62
7.656401507e-62
3.03480262e-61
1.195195704e-60
4.679554273e-60
1.822591483e-59
7.066511493e-59
2.729223309e-58
1.050727776e-57
4.034754137e-57
1.546111496e-56
5.91428253e-56
2.25871991e-55
8.611489919e-55
3.276527518e-54
1.243474272e-53
4.703752101e-53
1.772054614e-52
6.642781978e-52
2.475652165e-51
9.16480243e-51
3.367260567e-50
1.226998313e-49
4.431610586e-49
1.585670711e-48
5.61857042e-48
1.970930392e-47
6.843205042e-47
2.351454197e-46
7.996103561e-46
2.690841596e-45
8.96168874e-45
2.954101165e-44
9.639529339e-44
3.114237477e-43
9.962618602e-43
3.156478485e-42
9.906590265e-42
3.080510705e-41
9.492543041e-41
2.899252235e-40
8.778338253e-40
2.635343461e-39
7.845709798e-39
2.316670803e-38
6.785715988e-38
1.971894876e-37
5.685666114e-37
1.626809192e-36
4.619490904e-36
1.301949365e-35
3.642268064e-35
1.011488088e-34
2.788630962e-34
7.632916895e-34
2.074363462e-33
5.597546941e-33
1.499862219e-32
3.99086086e-32
1.054540388e-31
2.767325794e-31
7.212341515e-31
1.866936548e-30
4.799973737e-30
1.225812415e-29
3.109607935e-29
7.836131341e-29
1.961689555e-28
4.878767636e-28
1.205482371e-27
2.959398042e-27
7.218716452e-27
1.749664856e-26
4.214192447e-26
1.008712767e-25
2.399643026e-25
5.673981722e-25
1.333621502e-24
3.116214397e-24
7.239799751e-24
1.672600237e-23
3.843240804e-23
8.784696964e-23
1.997932578e-22
4.522460294e-22
1.019175778e-21
2.287507345e-21
5.115770265e-21
1.14054858e-20
2.536552913e-20
5.631215208e-20
1.249005112e-19
2.770333837e-19
6.151753529e-19
1.369161712e-18
3.058130539e-18
6.861859732e-18
1.54803165e-17
3.511243123e-17
8.00101596e-17
1.827401227e-16
4.169583474e-16
9.461800569e-16
2.126439343e-15
4.721079328e-15
1.038965123e-14
2.593407981e-71
2.247907018e-70
1.355797412e-69
6.962361089e-69
3.284670941e-68
1.47804476e-67
6.471574193e-67
2.784716413e-66
1.183578029e-65
4.979511517e-65
2.076133544e-64
8.581925989e-64
3.518523785e-63
1.431120489e-62
5.776927061e-62
2.314950327e-61
9.213640888e-61
3.643884859e-60
1.432871426e-59
5.605729613e-59
2.183500473e-58
8.473439287e-58
3.278323743e-57
1.265267055e-56
4.873745938e-56
1.874210869e-55
7.196010915e-55
2.75814349e-54
1.054958703e-53
4.024331079e-53
1.529927661e-52
5.791536107e-52
2.181075903e-51
8.164426363e-51
3.035164567e-50
1.119621582e-49
4.095377625e-49
1.484551566e-48
5.330495669e-48
1.895167009e-47
6.669836672e-47
2.323214579e-46
8.0079918e-46
2.731501983e-45
9.220042557e-45
3.079980927e-44
1.018342025e-43
3.333009315e-43
1.080051812e-42
3.465649012e-42
1.101389908e-41
3.467370428e-41
1.081553735e-40
3.343253968e-40
1.024345464e-39
3.111418878e-39
9.370887666e-39
2.798878161e-38
8.291523538e-38
2.436648742e-37
7.10421538e-37
2.055207021e-36
5.900084265e-36
1.681000226e-35
4.753601215e-35
1.334312903e-34
3.717961619e-34
1.028475294e-33
2.82456498e-33
7.701989312e-33
2.085311759e-32
5.60631404e-32
1.496727008e-31
3.968130279e-31
1.044783006e-30
2.732004004e-30
7.095283749e-30
1.830248327e-29
4.689450624e-29
1.193509833e-28
3.017447883e-28
7.578463428e-28
1.890901366e-27
4.687297619e-27
1.154418089e-26
2.824964883e-26
6.869050193e-26
1.659741869e-25
3.985418698e-25
9.511073686e-25
2.256025357e-24
5.319355431e-24
1.246872644e-23
2.905953186e-23
6.734751923e-23
1.552373397e-22
3.559575016e-22
8.121408331e-22
1.844224514e-21
4.169563039e-21
9.389122652e-21
2.106787446e-20
4.713073846e-20
1.051867072e-19
2.343704875e-19
5.218256702e-19
1.16211106e-18
2.591736245e-18
5.795173517e-18
1.300959658e-17
2.935167039e-17
6.661209517e-17
1.520449929e-16
3.487280345e-16
8.015750777e-16
1.839651685e-15
4.194246414e-15
9.454445852e-15
2.100400435e-14
4.611451476e-14
8.018104866e-71
6.863200972e-70
4.096643807e-69
2.089188026e-68
9.822915068e-68
4.417804665e-67
1.937131492e-66
8.357311607e-66
3.563656677e-65
1.50463101e-64
6.29666859e-64
2.61266344e-63
1.075295239e-62
4.390676001e-62
1.779378693e-61
7.159016537e-61
2.861045193e-60
1.136270051e-59
4.4874552e-59
1.763465456e-58
6.90072877e-58
2.690762155e-57
1.046186551e-56
4.058280423e-56
1.571361072e-55
6.074612042e-55
2.34473247e-54
9.034646883e-54
3.473697945e-53
1.331866944e-52
5.088384062e-52
1.935367981e-51
7.321750594e-51
2.752681135e-50
1.027557902e-49
3.805426672e-49
1.397193821e-48
5.082992831e-48
1.831441925e-47
6.533158485e-47
2.306740611e-46
8.060216358e-46
2.78694514e-45
9.535302969e-45
3.22835949e-44
1.081698672e-43
3.587224901e-43
1.177640012e-42
3.827648485e-42
1.231942417e-41
3.927127859e-41
1.240147717e-40
3.880363445e-40
1.203253352e-39
3.698366104e-39
1.126963193e-38
3.405111149e-38
1.020339259e-37
3.032597402e-37
8.941324527e-37
2.615538554e-36
7.591770633e-36
2.186720781e-35
6.251079795e-35
1.773636387e-34
4.995235764e-34
1.39656336e-33
3.876208625e-33
1.068124077e-32
2.922325056e-32
7.938712873e-32
2.141447886e-31
5.736152883e-31
1.525839125e-30
4.030788213e-30
1.057504838e-29
2.755521725e-29
7.13136843e-29
1.833198065e-28
4.680943354e-28
1.187304735e-27
2.991668776e-27
7.488692107e-27
1.862340831e-26
4.601443481e-26
1.129622025e-25
2.755502105e-25
6.679184107e-25
1.608905519e-24
3.851721162e-24
9.165013312e-24
2.167740361e-23
5.097122411e-23
1.191632294e-22
2.770272037e-22
6.405329481e-22
1.473282998e-21
3.371801356e-21
7.680485583e-21
1.741864255e-20
3.934644497e-20
8.85668587e-20
1.987668017e-19
4.450598203e-19
9.949864163e-19
2.223064273e-18
4.968877007e-18
1.112459022e-17
2.497828156e-17
5.632697556e-17
1.277052914e-16
2.913636168e-16
6.688100463e-16
1.542939646e-15
3.56666989e-15
8.227356856e-15
1.883036793e-14
4.253521745e-14
9.445712125e-14
2.066411737e-13
2.504633302e-70
2.114704153e-69
1.248522273e-68
6.322669475e-68
2.963277582e-67
1.332360911e-66
5.851913155e-66
2.531638945e-65
1.083115658e-64
4.589502515e-64
1.927793852e-63
8.0292316e-63
3.317281499e-62
1.359783298e-61
5.532490456e-61
2.234816434e-60
8.967604222e-60
3.576490735e-59
1.418621787e-58
5.599877814e-58
2.201481773e-57
8.62523894e-57
3.370136736e-56
1.31395963e-55
5.114053759e-55
1.987408648e-54
7.711719607e-54
2.987068936e-53
1.154429004e-52
4.448583844e-52
1.707871714e-51
6.526358852e-51
2.48008889e-50
9.364107262e-50
3.509796997e-49
1.30485027e-48
4.808623596e-48
1.75559336e-47
6.3471727e-47
2.271665783e-46
8.046633588e-46
2.820490278e-45
9.782378458e-45
3.357155476e-44
1.140065014e-43
3.831415106e-43
1.274427493e-42
4.196428323e-42
1.368072504e-41
4.41657744e-41
1.412210469e-40
4.47340581e-40
1.404073817e-39
4.367568277e-39
1.34669728e-38
4.116795345e-38
1.247905424e-37
3.751511914e-37
1.11865805e-36
3.309129024e-36
9.712017426e-36
2.828355558e-35
8.173953964e-35
2.344471484e-34
6.67433433e-34
1.886055944e-33
5.290724754e-33
1.473389179e-32
4.073680378e-32
1.118271159e-31
3.048034805e-31
8.249467863e-31
2.217096998e-30
5.917181197e-30
1.568319507e-29
4.128206638e-29
1.079228131e-28
2.802259423e-28
7.227142215e-28
1.851430921e-27
4.711379776e-27
1.190983928e-26
2.990883178e-26
7.461879669e-26
1.849580433e-25
4.555087047e-25
1.114661291e-24
2.710430791e-24
6.549560178e-24
1.572884686e-23
3.754301828e-23
8.907396084e-23
2.100918477e-22
4.926744423e-22
1.148858895e-21
2.664434756e-21
6.146983429e-21
1.411053152e-20
3.223809914e-20
7.333132876e-20
1.66139166e-19
3.750845049e-19
8.443004202e-19
1.896172784e-18
4.252086392e-18
9.530057306e-18
2.137017873e-17
4.80079214e-17
1.081843588e-16
2.449173498e-16
5.576448636e-16
1.278186639e-15
2.948496665e-15
6.836923942e-15
1.588196912e-14
3.679343894e-14
8.446627519e-14
1.910196529e-13
4.23558758e-13
9.221335068e-13
7.839861391e-70
6.521580564e-69
3.806428554e-68
1.914115053e-67
8.944355933e-67
4.021632477e-66
1.769673243e-65
7.67799681e-65
3.296018623e-64
1.401667836e-63
5.90953013e-63
2.470600172e-62
1.024633659e-61
4.216320381e-61
1.72216982e-60
6.9843782e-60
2.81415549e-59
1.12708382e-58
4.49001024e-58
1.780329248e-57
7.031447377e-57
2.76806369e-56
1.086909812e-55
4.259180235e-55
1.666295082e-54
6.509424262e-54
2.539106495e-53
9.886247334e-53
3.840349432e-52
1.487250107e-51
5.737235695e-51
2.202521294e-50
8.406772673e-50
3.187564228e-49
1.199527288e-48
4.476550463e-48
1.655717081e-47
6.066076863e-47
2.200533191e-46
7.901500075e-46
2.807756142e-45
9.872343924e-45
3.434538601e-44
1.182247635e-43
4.026904476e-43
1.357377924e-42
4.528626879e-42
1.495654574e-41
4.89065045e-41
1.583655514e-40
5.079288719e-40
1.613920885e-39
5.081438972e-39
1.58562991e-38
4.904670438e-38
1.504141704e-37
4.574166486e-37
1.379582646e-36
4.127233705e-36
1.224908912e-35
3.606905859e-35
1.053902617e-34
3.055936835e-34
8.794394649e-34
2.51200235e-33
7.122280671e-33
2.004622309e-32
5.601281208e-32
1.553847065e-31
4.279747472e-31
1.17041095e-30
3.178257588e-30
8.570169805e-30
2.294868006e-29
6.102555616e-29
1.611643661e-28
4.227144313e-28
1.101194467e-27
2.849310381e-27
7.323068773e-27
1.869566197e-26
4.741331201e-26
1.194510347e-25
2.989709963e-25
7.434273326e-25
1.836709137e-24
4.508776594e-24
1.099814852e-23
2.665949289e-23
6.422257367e-23
1.537670164e-22
3.659480678e-22
8.657719704e-22
2.03643268e-21
4.763012862e-21
1.107933372e-20
2.563608366e-20
5.902022009e-20
1.352323827e-19
3.084893973e-19
7.008864632e-19
1.586778268e-18
3.581655958e-18
8.065977831e-18
1.813725637e-17
4.076283939e-17
9.166384889e-17
2.065225477e-16
4.668191748e-16
1.060308255e-15
2.42279755e-15
5.574985076e-15
1.291381184e-14
3.007371854e-14
7.014762765e-14
1.630776966e-13
3.75183542e-13
8.486510139e-13
1.876837882e-12
4.061014894e-12
2.444338327e-69
2.000867286e-68
1.153960041e-67
5.762430051e-67
2.685436233e-66
1.207807544e-65
5.325871878e-65
2.317631606e-64
9.983281839e-64
4.26085462e-63
1.803069452e-62
7.566422835e-62
3.149965086e-61
1.301186213e-60
5.335508532e-60
2.172482039e-59
8.789195704e-59
3.534894707e-58
1.414305747e-57
5.632923248e-57
2.23502833e-56
8.840692745e-56
3.488509593e-55
1.373925962e-54
5.402831662e-54
2.121614829e-53
8.31879354e-53
3.255698478e-52
1.271081865e-51
4.946700036e-51
1.917290344e-50
7.39391373e-50
2.83440945e-49
1.079180038e-48
4.07707735e-48
1.527246144e-47
5.669033318e-47
2.084139466e-46
7.585607097e-46
2.732573896e-45
9.740620628e-45
3.435461537e-44
1.198810742e-43
4.138993275e-43
1.41401736e-42
4.780550239e-42
1.599719888e-41
5.299142626e-41
1.737985046e-40
5.644889733e-40
1.816035296e-39
5.788184047e-39
1.828091833e-38
5.722382715e-38
1.775664848e-37
5.46295701e-37
1.666670866e-36
5.043063695e-36
1.513643362e-35
4.507064668e-35
1.331547792e-34
3.90355248e-34
1.135653167e-33
3.279078807e-33
9.397503509e-33
2.673370625e-32
7.549539992e-32
2.116520968e-31
5.891006117e-31
1.627959084e-30
4.466892279e-30
1.217012784e-29
3.292541278e-29
8.845690845e-29
2.360012226e-28
6.253109378e-28
1.64548671e-27
4.300581955e-27
1.11638604e-26
2.878551251e-26
7.372630563e-26
1.875759212e-25
4.740849199e-25
1.190361266e-24
2.969378793e-24
7.359331219e-24
1.81226098e-23
4.4344357e-23
1.078250313e-22
2.605528471e-22
6.257522562e-22
1.493755875e-21
3.544649246e-21
8.362511109e-21
1.961694021e-20
4.576466062e-20
1.0619836e-19
2.451866496e-19
5.633585312e-19
1.28863143e-18
2.935585616e-18
6.663382158e-18
1.507877264e-17
3.404207594e-17
7.673325776e-17
1.728672073e-16
3.896507839e-16
8.800059897e-16
1.994065524e-15
4.541088448e-15
1.040566685e-14
2.401812101e-14
5.582006674e-14
1.30444283e-13
3.052532869e-13
7.115148e-13
1.638983897e-12
3.704432217e-12
8.161535923e-12
1.752700437e-11
7.554178825e-69
6.077347148e-68
3.461815386e-67
1.716844874e-66
7.981879735e-66
3.592084807e-65
1.587536288e-64
6.929732712e-64
2.995328448e-63
1.283021964e-62
5.449402505e-62
2.29532978e-61
9.591743908e-61
3.977308924e-60
1.637235333e-59
6.692852099e-59
2.718733277e-58
1.09800751e-57
4.412053969e-57
1.765072837e-56
7.035747229e-56
2.796265419e-55
1.10881595e-54
4.388969688e-54
1.734755419e-53
6.847297335e-53
2.698642825e-52
1.061537211e-51
4.165084422e-51
1.628776983e-50
6.342394869e-50
2.456823512e-49
9.458649447e-49
3.615834514e-48
1.3712992e-47
5.155726978e-47
1.920528418e-46
7.084522439e-46
2.58699961e-45
9.348868688e-45
3.342890869e-44
1.18261669e-43
4.139184065e-43
1.433349392e-42
4.911340013e-42
1.665402907e-41
5.589456646e-41
1.857037888e-40
6.108878158e-40
1.990132173e-39
6.42204528e-39
2.053176542e-38
6.50473272e-38
2.042529834e-37
6.358062513e-37
1.962345444e-36
6.006094264e-36
1.823228461e-35
5.490136326e-35
1.640112594e-34
4.861418141e-34
1.429874901e-33
4.173682312e-33
1.209103598e-32
3.47667353e-32
9.923187271e-32
2.811597173e-31
7.908516269e-31
2.208514837e-30
6.123373613e-30
1.685724925e-29
4.607946642e-29
1.250752471e-28
3.371290712e-28
9.024003515e-28
2.398819555e-27
6.33298193e-27
1.660538768e-26
4.324536402e-26
1.118657521e-25
2.874339985e-25
7.3363417e-25
1.860113958e-24
4.685296197e-24
1.172444592e-23
2.914920633e-23
7.200514097e-23
1.76737053e-22
4.310689218e-22
1.044843612e-21
2.516956352e-21
6.026412503e-21
1.434316791e-20
3.393797292e-20
7.984369235e-20
1.868013356e-19
4.346958341e-19
1.006367621e-18
2.318503625e-18
5.31718288e-18
1.214341494e-17
2.763078033e-17
6.267189679e-17
1.418027897e-16
3.203077729e-16
7.23047897e-16
1.632912922e-15
3.694721319e-15
8.38761341e-15
1.913755101e-14
4.394154285e-14
1.0165046e-13
2.368122053e-13
5.547990121e-13
1.301297763e-12
3.038384975e-12
7.000993859e-12
1.579502439e-11
3.462484872e-11
7.369184302e-11
2.304194703e-68
1.819516272e-67
1.023286282e-66
5.040987005e-66
2.338878307e-65
1.053505414e-64
4.667369075e-64
2.043788637e-63
8.86477911e-63
3.810808493e-62
1.624494099e-61
6.867813729e-61
2.880670316e-60
1.199028605e-59
4.954767382e-59
2.033437871e-58
8.293481502e-58
3.363382315e-57
1.357282011e-56
5.453977651e-56
2.183981996e-55
8.721094117e-55
3.475092554e-54
1.382399196e-53
5.491707557e-53
2.178717363e-52
8.630420004e-52
3.411899343e-51
1.345270137e-50
5.285752233e-50
2.067665976e-49
8.044461331e-49
3.110061593e-48
1.193624561e-47
4.54392731e-47
1.714575603e-46
6.409000404e-46
2.372066e-45
8.689842866e-45
3.150180289e-44
1.129871308e-43
4.00920549e-43
1.407408816e-42
4.888070497e-42
1.679822246e-41
5.713001107e-41
1.92305326e-40
6.408061146e-40
2.114272959e-39
6.908536135e-39
2.236113252e-38
7.170929634e-38
2.278872437e-37
7.178155986e-37
2.241482185e-36
6.940062109e-36
2.130923738e-35
6.489543165e-35
1.960476738e-34
5.87577037e-34
1.747322473e-33
5.156220685e-33
1.510007681e-32
4.388863615e-32
1.26614353e-31
3.625778738e-31
1.030704277e-30
2.908746896e-30
8.149662664e-30
2.267025354e-29
6.261466988e-29
1.717187305e-28
4.676265739e-28
1.264556008e-27
3.395872716e-27
9.056408913e-27
2.398660623e-26
6.309679453e-26
1.648507394e-25
4.277954031e-25
1.102704513e-24
2.823429165e-24
7.181370074e-24
1.814550274e-23
4.554931961e-23
1.135969935e-22
2.814793142e-22
6.930188629e-22
1.69546702e-21
4.122006849e-21
9.959471041e-21
2.391714073e-20
5.70913239e-20
1.354777768e-19
3.196390329e-19
7.499163073e-19
1.749866692e-18
4.061919945e-18
9.382133909e-18
2.157012885e-17
4.937894883e-17
1.126081513e-16
2.55955938e-16
5.802649234e-16
1.313069831e-15
2.968883e-15
6.714652335e-15
1.521293024e-14
3.457738541e-14
7.89842469e-14
1.815673772e-13
4.205587589e-13
9.811376159e-13
2.302037409e-12
5.406516684e-12
1.263262555e-11
2.908674121e-11
6.543306702e-11
1.425331468e-10
3.001739655e-10
6.908832627e-68
5.347783458e-67
2.968448205e-66
1.452951432e-65
6.730198071e-65
3.035087608e-64
1.348123364e-63
5.922258164e-63
2.577633196e-62
1.112034128e-61
4.757604572e-61
2.01871704e-60
8.498745712e-60
3.550732293e-59
1.472877198e-58
6.068285283e-58
2.484890128e-57
1.01188881e-56
4.100820212e-56
1.655089409e-55
6.65779716e-55
2.671101976e-54
1.069503517e-53
4.275555588e-53
1.707026795e-52
6.806409445e-52
2.709701575e-51
1.07652543e-50
4.265048166e-50
1.683607868e-49
6.615385882e-49
2.584786657e-48
1.003400678e-47
3.865935491e-47
1.477144985e-46
5.59349678e-46
2.097924836e-45
7.790149115e-45
2.862896683e-44
1.041040976e-43
3.745173968e-43
1.332880258e-42
4.692758319e-42
1.634594118e-41
5.633943491e-41
1.92164405e-40
6.487305845e-40
2.16807369e-39
7.174518843e-39
2.351327804e-38
7.633581802e-38
2.455443678e-37
7.82721279e-37
2.473119286e-36
7.746837115e-36
2.406138314e-35
7.411453899e-35
2.264315691e-34
6.862459836e-34
2.063407417e-33
6.156032153e-33
1.822515096e-32
5.354682822e-32
1.561434734e-31
4.519320001e-31
1.298405155e-30
3.703065516e-30
1.048456858e-29
2.947134274e-29
8.224891328e-29
2.279086464e-28
6.27061795e-28
1.713154629e-27
4.647684513e-27
1.252124233e-26
3.350005628e-26
8.901181864e-26
2.348935794e-25
6.156515566e-25
1.602710051e-24
4.144262056e-24
1.064457831e-23
2.715916653e-23
6.883818617e-23
1.733352422e-22
4.33619794e-22
1.077750099e-21
2.661565473e-21
6.531187054e-21
1.592615892e-20
3.859451602e-20
9.295462595e-20
2.225294881e-19
5.295679936e-19
1.252930762e-18
2.947589815e-18
6.896285369e-18
1.604948415e-17
3.716279504e-17
8.564195676e-17
1.96492218e-16
4.490308114e-16
1.022583425e-15
2.322207267e-15
5.262709063e-15
1.191401499e-14
2.697278724e-14
6.115693594e-14
1.390783891e-13
3.178091264e-13
7.307653321e-13
1.693081607e-12
3.951058655e-12
9.273712511e-12
2.178392848e-11
5.088012e-11
1.169390839e-10
2.61999495e-10
5.663269657e-10
1.178245686e-09
2.028242798e-67
1.536831011e-66
8.417715164e-66
4.095104318e-65
1.894540353e-64
8.556221016e-64
3.81080811e-63
1.679507651e-62
7.33513849e-62
3.175675637e-61
1.363496967e-60
5.806397164e-60
2.45340037e-59
1.028816213e-58
4.283712412e-58
1.771707185e-57
7.283647055e-57
2.978119387e-56
1.212007636e-55
4.912978836e-55
1.985215778e-54
8.001744172e-54
3.219210305e-53
1.293232626e-52
5.188816086e-52
2.079200852e-51
8.318298907e-51
3.320743446e-50
1.321839142e-49
5.241693668e-49
2.068625823e-48
8.116748434e-48
3.163342515e-47
1.223388133e-46
4.69137375e-46
1.782626954e-45
6.708227142e-45
2.498927375e-44
9.212162181e-44
3.359991211e-43
1.212358077e-42
4.327328702e-42
1.527967104e-41
5.337711734e-41
1.845027225e-40
6.311153927e-40
2.136750213e-39
7.161854833e-39
2.376929894e-38
7.81304257e-38
2.544081099e-37
8.208063729e-37
2.624452096e-36
8.31782225e-36
2.613567669e-35
8.14302048e-35
2.516134335e-34
7.711548503e-34
2.344586268e-33
7.072282661e-33
2.116746843e-32
6.286899068e-32
1.853101963e-31
5.421151389e-31
1.574142128e-30
4.537163353e-30
1.298190336e-29
3.68747553e-29
1.039868389e-28
2.911429547e-28
8.093418055e-28
2.233950883e-27
6.122780823e-27
1.666380509e-26
4.503670915e-26
1.208766906e-25
3.22194716e-25
8.529258537e-25
2.242537198e-24
5.856238555e-24
1.519024093e-23
3.91375764e-23
1.001668468e-22
2.546670643e-22
6.432195651e-22
1.613998319e-21
4.023699099e-21
9.966643379e-21
2.453002453e-20
5.999283733e-20
1.45808571e-19
3.521940786e-19
8.455401823e-19
2.017822446e-18
4.78716213e-18
1.129220291e-17
2.648823569e-17
6.179938258e-17
1.434394757e-16
3.31304308e-16
7.617273954e-16
1.744076562e-15
3.978626067e-15
9.048471703e-15
2.053078915e-14
4.652034821e-14
1.053794914e-13
2.389839004e-13
5.434084127e-13
1.241190758e-12
2.851996859e-12
6.60210927e-12
1.539322917e-11
3.609774822e-11
8.470293584e-11
1.975237611e-10
4.526106911e-10
1.008699421e-09
2.160393366e-09
4.432529179e-09
5.806383749e-67
4.30067856e-66
2.324112827e-65
1.12423565e-64
5.196878625e-64
2.351075861e-63
1.050073168e-62
4.642962275e-62
2.034686354e-61
8.839622862e-61
3.808671071e-60
1.627668465e-59
6.902138255e-59
2.904920768e-58
1.214018299e-57
5.04016743e-57
2.080144351e-56
8.539467916e-56
3.489759473e-55
1.420691693e-54
5.766218258e-54
2.334846012e-53
9.43770447e-53
3.80958946e-52
1.53595128e-51
6.184665457e-51
2.486254768e-50
9.972374599e-50
3.987832955e-49
1.588392247e-48
6.295296092e-48
2.48019216e-47
9.703426733e-47
3.766536954e-46
1.449457571e-45
5.526226594e-45
2.086325649e-44
7.796257464e-44
2.882789647e-43
1.054574289e-42
3.816224946e-42
1.366061338e-41
4.837278495e-41
1.694629492e-40
5.874230831e-40
2.015062714e-39
6.841814358e-39
2.299796e-38
7.654850892e-38
2.523530934e-37
8.241376089e-37
2.666873495e-36
8.55274969e-36
2.718906447e-35
8.569338993e-35
2.67817284e-34
8.301105443e-34
2.552120146e-33
7.783776843e-33
2.355344895e-32
7.071953733e-32
2.107104817e-31
6.230612797e-31
1.828548447e-30
5.326515384e-30
1.540167642e-29
4.420848352e-29
1.259733816e-28
3.563761423e-28
1.000955811e-27
2.791363285e-27
7.729134284e-27
2.125081532e-26
5.801860572e-26
1.57297695e-25
4.235035444e-25
1.132368237e-24
3.006983976e-24
7.930581927e-24
2.077420789e-23
5.405120234e-23
1.396896014e-22
3.586061734e-22
9.145003855e-22
2.31675934e-21
5.830796367e-21
1.457958478e-20
3.622047771e-20
8.940840363e-20
2.193021516e-19
5.345345578e-19
1.294815436e-18
3.117269093e-18
7.459589299e-18
1.774499026e-17
4.196726094e-17
9.86920659e-17
2.308161318e-16
5.369711748e-16
1.242929696e-15
2.863400046e-15
6.567834547e-15
1.500584786e-14
3.417045813e-14
7.760487458e-14
1.759425731e-13
3.986100322e-13
9.036991885e-13
2.053232759e-12
4.683804901e-12
1.074428665e-11
2.482204485e-11
5.77470997e-11
1.351089851e-10
3.16251766e-10
7.353111597e-10
1.677652658e-09
3.714007202e-09
7.869183037e-09
1.589223142e-08
1.61403059e-66
1.166923262e-65
6.221625219e-65
2.993969112e-64
1.383455123e-63
6.270953798e-63
2.808871237e-62
1.245981095e-61
5.478551731e-61
2.388264259e-60
1.032553413e-59
4.428071307e-59
1.884331179e-58
7.959014975e-58
3.338320887e-57
1.391126614e-56
5.763378642e-56
2.375360643e-55
9.746886352e-55
3.984785339e-54
1.624399383e-53
6.607188797e-53
2.683069341e-52
1.088149988e-51
4.408111001e-51
1.783427178e-50
7.203216872e-50
2.902549781e-49
1.165891765e-48
4.663943943e-48
1.856120419e-47
7.341625547e-47
2.883094351e-46
1.123127155e-45
4.336868018e-45
1.658905115e-44
6.282658003e-44
2.354891502e-43
8.733420205e-43
3.204103054e-42
1.162785559e-41
4.174046833e-41
1.482178994e-40
5.206943706e-40
1.809950232e-39
6.226086882e-39
2.11990079e-38
7.145953276e-38
2.385309778e-37
7.886159573e-37
2.582960904e-36
8.382898115e-36
2.696395183e-35
8.597454914e-35
2.717890464e-34
8.520055777e-34
2.648915902e-33
8.169016738e-33
2.499207573e-32
7.586046879e-32
2.28483051e-31
6.82900666e-31
2.02563583e-30
5.963452754e-30
1.742592536e-29
5.054543098e-29
1.455392081e-28
4.160181964e-28
1.180591071e-27
3.326295908e-27
9.304967587e-27
2.584514707e-26
7.128042473e-26
1.952113898e-25
5.308842867e-25
1.433740268e-24
3.845325658e-24
1.024246522e-23
2.709575737e-23
7.119320698e-23
1.857941932e-22
4.816129658e-22
1.240090694e-21
3.171867376e-21
8.059364172e-21
2.034365912e-20
5.101753248e-20
1.271136745e-19
3.146804221e-19
7.740612957e-19
1.892061318e-18
4.595975905e-18
1.109520271e-17
2.662219828e-17
6.349587827e-17
1.505526708e-16
3.549189765e-16
8.320230032e-16
1.939931538e-15
4.49966954e-15
1.038566551e-14
2.38613849e-14
5.459343861e-14
1.244512518e-13
2.828428274e-13
6.414218359e-13
1.452849068e-12
3.29113491e-12
7.466924e-12
1.699804586e-11
3.888737131e-11
8.954959864e-11
2.075833041e-10
4.838155841e-10
1.127921793e-09
2.610738522e-09
5.922246312e-09
1.300404051e-08
2.721133835e-08
5.398515085e-08
4.336512208e-66
3.055878176e-65
1.607632035e-64
7.700498978e-64
3.55837686e-63
1.616395263e-62
7.261126724e-62
3.231250288e-61
1.425427894e-60
6.234590204e-60
2.70452792e-59
1.163770489e-58
4.969334904e-58
2.106281363e-57
8.865972651e-57
3.708075927e-56
1.542003132e-55
6.379948443e-55
2.628382552e-54
1.079008941e-53
4.417436973e-53
1.804719923e-52
7.361863064e-52
2.999454363e-51
1.220729678e-50
4.961721481e-50
2.013207122e-49
8.148609437e-49
3.287474799e-48
1.32061158e-47
5.276723962e-47
2.095023747e-46
8.257077994e-46
3.227744006e-45
1.250497911e-44
4.798507423e-44
1.822868061e-43
6.852795156e-43
2.548778629e-42
9.37731998e-42
3.412533415e-41
1.228362338e-40
4.373752336e-40
1.54070001e-39
5.370113817e-39