/*--------------------------------*- C++ -*----------------------------------*\
  =========                 |
  \\      /  F ield         | OpenFOAM: The Open Source CFD Toolbox
   \\    /   O peration     | Website:  https://openfoam.org
    \\  /    A nd           | Version:  7
     \\/     M anipulation  |
\*---------------------------------------------------------------------------*/
FoamFile
{
    version     2.0;
    format      ascii;
    class       volScalarField;
    location    "0.361";
    object      Y_H2;
}
// * * * * * * * * * * * * * * * * * * * * * * * * * * * * * * * * * * * * * //

dimensions      [0 0 0 0 0 0 0];

internalField   nonuniform List<scalar> 
35870
(
6.685911937e-43
2.975476923e-42
1.030525394e-41
3.159327491e-41
9.039493231e-41
2.480406817e-40
6.626136843e-40
1.737648658e-39
4.493755025e-39
1.148840829e-38
2.907358332e-38
7.288679968e-38
1.811006052e-37
4.461185544e-37
1.089822884e-36
2.640767521e-36
6.348386815e-36
1.514379944e-35
3.585283775e-35
8.425598001e-35
1.965784977e-34
4.553998988e-34
1.047690671e-33
2.39393537e-33
5.433564866e-33
1.225178848e-32
2.744752494e-32
6.10996405e-32
1.351594468e-31
2.971415928e-31
6.492690594e-31
1.410140123e-30
3.044432137e-30
6.534083932e-30
1.394196018e-29
2.957658977e-29
6.238508059e-29
1.308408889e-28
2.728707756e-28
5.659016391e-28
1.167116029e-27
2.393835016e-27
4.883136155e-27
9.907055227e-27
1.999160785e-26
4.01258319e-26
8.011041982e-26
1.59095433e-25
3.143004788e-25
6.176829741e-25
1.207630063e-24
2.348898077e-24
4.545383566e-24
8.751188046e-24
1.676360867e-23
3.195110189e-23
6.059485186e-23
1.143485959e-22
2.147260642e-22
4.012463095e-22
7.461449259e-22
1.380812223e-21
2.543072554e-21
4.661320172e-21
8.503515247e-21
1.543976614e-20
2.790286855e-20
5.019218657e-20
8.987019567e-20
1.601772078e-19
2.841870786e-19
5.019258917e-19
8.825099115e-19
1.544746911e-18
2.691942911e-18
4.670443505e-18
8.06765251e-18
1.38754178e-17
2.376117277e-17
4.051592092e-17
6.879115397e-17
1.163058328e-16
1.958147701e-16
3.283050478e-16
5.481647131e-16
9.115057387e-16
1.509510736e-15
2.489748195e-15
4.090076241e-15
6.692354832e-15
1.090720569e-14
1.770725223e-14
2.863577619e-14
4.61322784e-14
7.403860086e-14
1.183830273e-13
1.885908572e-13
2.993473888e-13
4.734554276e-13
7.462051561e-13
1.172034622e-12
1.834652332e-12
2.862364631e-12
4.451211399e-12
6.899719395e-12
1.066089389e-11
1.641943839e-11
2.520574469e-11
3.856226194e-11
5.878404453e-11
8.926054851e-11
1.349548834e-10
2.030595025e-10
3.038794149e-10
4.51988854e-10
6.677366247e-10
9.791917362e-10
1.424794469e-09
2.057334976e-09
2.951046481e-09
7.752047983e-43
3.43559401e-42
1.185444729e-41
3.623952798e-41
1.034935617e-40
2.836779847e-40
7.574548399e-40
1.986199871e-39
5.137365706e-39
1.313775988e-38
3.32602267e-38
8.341804952e-38
2.073614099e-37
5.110496271e-37
1.249050435e-36
3.028102262e-36
7.283247733e-36
1.738290204e-35
4.117572088e-35
9.681724636e-35
2.260093435e-34
5.238721941e-34
1.205899533e-33
2.75701629e-33
6.261288961e-33
1.412645326e-32
3.16660731e-32
7.053251207e-32
1.561201284e-31
3.434310604e-31
7.508723461e-31
1.631812833e-30
3.525187833e-30
7.570587095e-30
1.616361197e-29
3.431097473e-29
7.241634323e-29
1.519744508e-28
3.171433457e-28
6.581291387e-28
1.358175213e-27
2.787452587e-27
5.689622365e-27
1.155048643e-26
2.332245047e-26
4.684043172e-26
9.357413054e-26
1.859490555e-25
3.675786357e-25
7.22835118e-25
1.414084407e-24
2.752154261e-24
5.328999435e-24
1.026615977e-23
1.967767086e-23
3.752809188e-23
7.121477554e-23
1.3447087e-22
2.526645911e-22
4.724242078e-22
8.790325878e-22
1.627707301e-21
2.999573742e-21
5.501334109e-21
1.004188076e-20
1.824374269e-20
3.298966437e-20
5.937725915e-20
1.063785002e-19
1.897108594e-19
3.367815135e-19
5.951618747e-19
1.047046143e-18
1.833806153e-18
3.197502751e-18
5.550745601e-18
9.593733051e-18
1.650946083e-17
2.828786779e-17
4.826171464e-17
8.198860099e-17
1.386964619e-16
2.33642321e-16
3.919448815e-16
6.547855953e-16
1.08939991e-15
1.805108746e-15
2.978936638e-15
4.896384031e-15
8.016060013e-15
1.30717376e-14
2.123288134e-14
3.435619577e-14
5.537836667e-14
8.89270283e-14
1.422679655e-13
2.267685456e-13
3.601516163e-13
5.699553265e-13
8.988289464e-13
1.412611712e-12
2.212624453e-12
3.454299127e-12
5.375335703e-12
8.338040153e-12
1.289275905e-11
1.987217539e-11
3.05307298e-11
4.674817034e-11
7.132425996e-11
1.083971089e-10
1.640300005e-10
2.47011324e-10
3.69930329e-10
5.505741735e-10
8.137365197e-10
1.193521186e-09
1.73645676e-09
2.506120305e-09
3.591408803e-09
1.037569221e-42
4.562613292e-42
1.563502295e-41
4.754936553e-41
1.35330873e-40
3.702357674e-40
9.87760166e-40
2.589802466e-39
6.700704317e-39
1.714523165e-38
4.343602885e-38
1.090237722e-37
2.712357301e-37
6.690419988e-37
1.636639421e-36
3.971321413e-36
9.5607035e-36
2.283993947e-35
5.415389177e-35
1.274570844e-34
2.97829346e-34
6.910389137e-34
1.59232057e-33
3.644235097e-33
8.284832854e-33
1.871159067e-32
4.198882304e-32
9.362557834e-32
2.07459426e-31
4.568628597e-31
9.999700337e-31
2.175544248e-30
4.704986076e-30
1.011545778e-29
2.162098236e-29
4.594644065e-29
9.708178601e-29
2.039643916e-28
4.261102963e-28
8.852379411e-28
1.828886806e-27
3.757682782e-27
7.678510844e-27
1.560536613e-26
3.15447493e-26
6.342375901e-26
1.268422585e-25
2.523353065e-25
4.993544637e-25
9.830400637e-25
1.925214965e-24
3.751000854e-24
7.270915382e-24
1.40222903e-23
2.690609103e-23
5.136860944e-23
9.758301959e-23
1.844563269e-22
3.469519126e-22
6.494039864e-22
1.209606226e-21
2.242176998e-21
4.13624226e-21
7.593912275e-21
1.387592749e-20
2.523530596e-20
4.567919773e-20
8.230096051e-20
1.47598197e-19
2.634875221e-19
4.682254483e-19
8.282835025e-19
1.458629842e-18
2.557209362e-18
4.46329501e-18
7.755789481e-18
1.341808559e-17
2.311331724e-17
3.964188627e-17
6.769862097e-17
1.151202658e-16
1.949320193e-16
3.286904471e-16
5.519206634e-16
9.229224969e-16
1.536973421e-15
2.549140966e-15
4.210773625e-15
6.92763679e-15
1.135216496e-14
1.852927898e-14
3.012598986e-14
4.879157346e-14
7.872052702e-14
1.265293027e-13
2.0261714e-13
3.23271052e-13
5.139120243e-13
8.140845225e-13
1.285105088e-12
2.021747158e-12
3.170050053e-12
4.954353615e-12
7.718242926e-12
1.198621699e-11
1.855630418e-11
2.863793748e-11
4.405630527e-11
6.755088065e-11
1.032084674e-10
1.570769615e-10
2.38026473e-10
3.589160996e-10
5.381573196e-10
8.017151577e-10
1.185671842e-09
1.739406525e-09
2.529829565e-09
3.647539751e-09
5.217922126e-09
1.520717785e-42
6.621220788e-42
2.249734487e-41
6.799208355e-41
1.92737767e-40
5.261325638e-40
1.402419246e-39
3.676710633e-39
9.51685103e-39
2.43676996e-38
6.178555211e-38
1.552244869e-37
3.865555098e-37
9.544633201e-37
2.337289659e-36
5.677512106e-36
1.368315887e-35
3.272454792e-35
7.76782772e-35
1.830344789e-34
4.281967294e-34
9.947002246e-34
2.294779327e-33
5.258277723e-33
1.196887642e-32
2.706561083e-32
6.081111974e-32
1.357656638e-31
3.012162091e-31
6.641768112e-31
1.455593522e-30
3.170869364e-30
6.866378605e-30
1.47813847e-29
3.163487056e-29
6.731379365e-29
1.424136823e-28
2.995918272e-28
6.266989042e-28
1.30363982e-27
2.696772545e-27
5.548000576e-27
1.13514443e-26
2.309960264e-26
4.67533379e-26
9.412196027e-26
1.884754326e-25
3.754212688e-25
7.438717166e-25
1.466245557e-24
2.87514118e-24
5.608795204e-24
1.08855897e-23
2.101939506e-23
4.038203128e-23
7.719150976e-23
1.468175606e-22
2.778607247e-22
5.232756952e-22
9.806221387e-22
1.828748597e-21
3.393914557e-21
6.268386387e-21
1.152210684e-20
2.107864156e-20
3.837966541e-20
6.955379375e-20
1.254627301e-19
2.252662259e-19
4.026039283e-19
7.162648103e-19
1.268516085e-18
2.236444614e-18
3.925302599e-18
6.858892084e-18
1.193201045e-17
2.066641396e-17
3.563867304e-17
6.119218785e-17
1.046168576e-16
1.780949288e-16
3.01896873e-16
5.096076533e-16
8.566368159e-16
1.434017277e-15
2.390685772e-15
3.969309793e-15
6.563661587e-15
1.081012826e-14
1.773308905e-14
2.897496828e-14
4.715889736e-14
7.645828462e-14
1.234881254e-13
1.98694799e-13
3.185160063e-13
5.08726139e-13
8.096024973e-13
1.283876984e-12
2.028944633e-12
3.195543261e-12
5.016275198e-12
7.848977256e-12
1.224254617e-11
1.903625673e-11
2.950928271e-11
4.560363564e-11
7.025540918e-11
1.078789943e-10
1.650707637e-10
2.516046158e-10
3.818283979e-10
5.765424495e-10
8.65504395e-10
1.290578348e-09
1.909714845e-09
2.801716061e-09
4.072457617e-09
5.86367359e-09
8.369006304e-09
2.354404029e-42
1.013542837e-41
3.411706109e-41
1.024225694e-40
2.891345482e-40
7.875536067e-40
2.097503907e-39
5.499029112e-39
1.424072122e-38
3.649046152e-38
9.260655444e-38
2.328838737e-37
5.805478443e-37
1.434982974e-36
3.517822343e-36
8.554668083e-36
2.064073351e-35
4.942140242e-35
1.174499639e-34
2.770803529e-34
6.489983491e-34
1.509477963e-33
3.48671633e-33
7.999562817e-33
1.82317705e-32
4.128106428e-32
9.287058238e-32
2.076113112e-31
4.612206013e-31
1.018324285e-30
2.234687989e-30
4.874513773e-30
1.056959365e-29
2.278369708e-29
4.882635373e-29
1.040331323e-28
2.203934257e-28
4.64254158e-28
9.724405744e-28
2.025532266e-27
4.195678541e-27
8.64309833e-27
1.770751933e-26
3.60813834e-26
7.312429121e-26
1.47403765e-25
2.955554881e-25
5.894783207e-25
1.169525344e-24
2.308228566e-24
4.531997071e-24
8.85230063e-24
1.720253317e-23
3.325923359e-23
6.397782165e-23
1.22449705e-22
2.33190454e-22
4.418777172e-22
8.331923561e-22
1.563341198e-21
2.91904661e-21
5.424009517e-21
1.003010258e-20
1.845904158e-20
3.38099911e-20
6.163485218e-20
1.11832049e-19
2.019658881e-19
3.630569458e-19
6.496352738e-19
1.15711274e-18
2.05166314e-18
3.621377427e-18
6.363439184e-18
1.113200485e-17
1.938792137e-17
3.361851334e-17
5.80401081e-17
9.976852306e-17
1.707605965e-16
2.910204557e-16
4.938716385e-16
8.345886476e-16
1.40446816e-15
2.353671169e-15
3.92814763e-15
6.529079137e-15
1.080818017e-14
1.781987482e-14
2.926332803e-14
4.786588873e-14
7.798825768e-14
1.265760258e-13
2.046504775e-13
3.296359424e-13
5.28981285e-13
8.457759686e-13
1.347434373e-12
2.13908027e-12
3.384126767e-12
5.335810401e-12
8.385421678e-12
1.31357611e-11
2.051284861e-11
3.193475537e-11
4.956634663e-11
7.669967801e-11
1.183204752e-10
1.819366957e-10
2.787845285e-10
4.255312029e-10
6.466618373e-10
9.776648412e-10
1.469254163e-09
2.192567845e-09
3.245632359e-09
4.760762552e-09
6.913997996e-09
9.937889302e-09
1.414542336e-08
3.764058706e-42
1.600149427e-41
5.333036401e-41
1.590098433e-40
4.470419593e-40
1.215171208e-39
3.234114673e-39
8.479721331e-39
2.197183357e-38
5.634504888e-38
1.43125565e-37
3.602836904e-37
8.990695513e-37
2.224668912e-36
5.459683733e-36
1.32917307e-35
3.210685931e-35
7.696463399e-35
1.831225041e-34
4.325280592e-34
1.01433066e-33
2.362092222e-33
5.462952072e-33
1.254941399e-32
2.863768535e-32
6.492567508e-32
1.462529306e-31
3.273722055e-31
7.282274661e-31
1.609958025e-30
3.53767222e-30
7.726909623e-30
1.677675214e-29
3.62117595e-29
7.77062601e-29
1.657867194e-28
3.516841804e-28
7.417979068e-28
1.555849987e-27
3.245022109e-27
6.730593513e-27
1.388327403e-26
2.848065255e-26
5.810901268e-26
1.179202296e-25
2.38012447e-25
4.778511093e-25
9.5429323e-25
1.895753929e-24
3.746340868e-24
7.364987814e-24
1.440423633e-23
2.802695156e-23
5.425537177e-23
1.04497199e-22
2.002512624e-22
3.818283863e-22
7.244310569e-22
1.367651129e-21
2.569309857e-21
4.803236344e-21
8.935958384e-21
1.654441377e-20
3.048442516e-20
5.590289655e-20
1.020313287e-19
1.853484382e-19
3.351302832e-19
6.031438967e-19
1.080497735e-18
1.926795182e-18
3.420338476e-18
6.044181723e-18
1.063295201e-17
1.862220544e-17
3.246999953e-17
5.63664101e-17
9.74223172e-17
1.676523694e-16
2.87267988e-16
4.901217682e-16
8.32670056e-16
1.4086633e-15
2.373121538e-15
3.981298441e-15
6.65173814e-15
1.10679005e-14
1.834127359e-14
3.027212234e-14
4.976466126e-14
8.148553541e-14
1.329042264e-13
2.159307771e-13
3.494845639e-13
5.63509082e-13
9.05226442e-13
1.448847995e-12
2.310608624e-12
3.671966614e-12
5.815323419e-12
9.178829141e-12
1.444033303e-11
2.264542834e-11
3.540252155e-11
5.517810673e-11
8.574318493e-11
1.328408172e-10
2.051822455e-10
3.159046155e-10
4.846955146e-10
7.407863501e-10
1.12714357e-09
1.706013561e-09
2.566221516e-09
3.831942005e-09
5.673397483e-09
8.318412197e-09
1.20667292e-08
1.730826582e-08
2.455878946e-08
6.129769795e-42
2.570231087e-41
8.477277713e-41
2.510167631e-40
7.029175009e-40
1.907124713e-39
5.072887084e-39
1.330350415e-38
3.449157515e-38
8.852298496e-38
2.25071587e-37
5.671239249e-37
1.416689649e-36
3.509191318e-36
8.621440249e-36
2.101235592e-35
5.081391889e-35
1.219480956e-34
2.904907707e-34
6.869410077e-34
1.612897752e-33
3.76056236e-33
8.707998838e-33
2.002880195e-32
4.576307824e-32
1.038828939e-31
2.343076598e-31
5.251476745e-31
1.169680979e-30
2.589274107e-30
5.696999236e-30
1.245950967e-29
2.7087608e-29
5.854377295e-29
1.257927893e-28
2.687312129e-28
5.708073383e-28
1.205563423e-27
2.531856654e-27
5.287555511e-27
1.09813393e-26
2.268073434e-26
4.658830218e-26
9.517666939e-26
1.933898173e-25
3.908421144e-25
7.85685466e-25
1.571051338e-24
3.12493373e-24
6.183214324e-24
1.217096498e-23
2.383345223e-23
4.643164252e-23
8.999535629e-23
1.735476993e-22
3.329844766e-22
6.356954384e-22
1.207557252e-21
2.28251375e-21
4.293184664e-21
8.035624885e-21
1.49674233e-20
2.774438359e-20
5.118198055e-20
9.396937778e-20
1.717102129e-19
3.122911238e-19
5.653144536e-19
1.018592893e-18
1.826856506e-18
3.26147896e-18
5.796210545e-18
1.025430428e-17
1.805983348e-17
3.166502096e-17
5.527354233e-17
9.605927542e-17
1.662106536e-16
2.863446837e-16
4.911828483e-16
8.389459196e-16
1.426837127e-15
2.416448764e-15
4.075273476e-15
6.844241803e-15
1.14471411e-14
1.906715416e-14
3.163052012e-14
5.226048425e-14
8.600087519e-14
1.409649711e-13
2.301526747e-13
3.743140566e-13
6.064456565e-13
9.788254615e-13
1.573984386e-12
2.521759123e-12
4.025723538e-12
6.404022124e-12
1.015231457e-11
1.604046954e-11
2.526087634e-11
3.965495437e-11
6.20587575e-11
9.682685246e-11
1.5062575e-10
2.336219185e-10
3.612576763e-10
5.568512935e-10
8.553904706e-10
1.308865465e-09
1.993725059e-09
3.020648018e-09
4.547301818e-09
6.793244261e-09
1.00576843e-08
1.473721629e-08
2.134700636e-08
3.054526301e-08
4.318523714e-08
1.008255659e-41
4.164746942e-41
1.358766293e-40
3.995613303e-40
1.114647685e-39
3.019135782e-39
8.027514447e-39
2.105797562e-38
5.463195861e-38
1.403306442e-37
3.571268657e-37
9.007587337e-37
2.252423593e-36
5.58519721e-36
1.373658504e-35
3.351582116e-35
8.114144538e-35
1.949522235e-34
4.649291473e-34
1.100734851e-33
2.587534764e-33
6.04024574e-33
1.400389313e-32
3.224923179e-32
7.377660141e-32
1.676836684e-31
3.786870385e-31
8.498178892e-31
1.895244125e-30
4.2007933e-30
9.254583138e-30
2.026611086e-29
4.411637987e-29
9.547073903e-29
2.054026037e-28
4.393684263e-28
9.344594677e-28
1.976152881e-27
4.15554803e-27
8.689640006e-27
1.807001777e-26
3.736933799e-26
7.685792769e-26
1.57215052e-25
3.198506947e-25
6.47236893e-25
1.30273754e-24
2.608211909e-24
5.194401781e-24
1.029080029e-23
2.028139552e-23
3.976450289e-23
7.75632886e-23
1.505197832e-22
2.906172521e-22
5.582815536e-22
1.067094401e-21
2.029474574e-21
3.8406886e-21
7.232571487e-21
1.355339039e-20
2.527482222e-20
4.690580226e-20
8.663166016e-20
1.592397917e-19
2.91316252e-19
5.304313717e-19
9.612984939e-19
1.734063761e-18
3.113599448e-18
5.564990259e-18
9.901092949e-18
1.753605814e-17
3.091889319e-17
5.427152461e-17
9.483948783e-17
1.6500172e-16
2.858135896e-16
4.929303628e-16
8.464661172e-16
1.447330707e-15
2.464183797e-15
4.177713128e-15
7.053059168e-15
1.18577764e-14
1.98531518e-14
3.310321477e-14
5.497178279e-14
9.091874309e-14
1.497706315e-13
2.457401244e-13
4.016236162e-13
6.538452646e-13
1.060385183e-12
1.713196804e-12
2.757592161e-12
4.42240307e-12
7.066777783e-12
1.125255136e-11
1.7855922e-11
2.823919102e-11
4.451448405e-11
6.994699249e-11
1.095710364e-10
1.711251068e-10
2.664701445e-10
4.137157506e-10
6.404033827e-10
9.881692394e-10
1.519552774e-09
2.327547728e-09
3.5489295e-09
5.381546359e-09
8.106685098e-09
1.211433731e-08
1.793246186e-08
2.625313866e-08
3.796225697e-08
5.416789685e-08
7.627266463e-08
1.665658044e-41
6.769250256e-41
2.183664167e-40
6.37727423e-40
1.772685469e-39
4.794426756e-39
1.274443951e-38
3.344398989e-38
8.682595924e-38
2.23215976e-37
5.685931086e-37
1.4355364e-36
3.593328522e-36
8.919433143e-36
2.196038221e-35
5.363913459e-35
1.300032022e-34
3.126995455e-34
7.465889772e-34
1.769621781e-33
4.164797313e-33
9.733711306e-33
2.259408571e-32
5.20945995e-32
1.193230013e-31
2.715392631e-31
6.139915592e-31
1.379593149e-30
3.080606412e-30
6.836760918e-30
1.50808462e-29
3.306665638e-29
7.207283944e-29
1.561689005e-28
3.364208234e-28
7.205403268e-28
1.534412221e-27
3.249029036e-27
6.840879968e-27
1.432303282e-26
2.982222817e-26
6.175097593e-26
1.271635039e-25
2.604424021e-25
5.305262563e-25
1.074887553e-24
2.166182295e-24
4.342274507e-24
8.658531721e-24
1.717473752e-23
3.388979423e-23
6.652649626e-23
1.29921532e-22
2.524306764e-22
4.879680075e-22
9.385175756e-22
1.796010603e-21
3.419828512e-21
6.479510458e-21
1.221619439e-20
2.291917387e-20
4.279023147e-20
7.950351105e-20
1.470067538e-19
2.705271489e-19
4.954733098e-19
9.031892109e-19
1.638700099e-18
2.959345355e-18
5.319617293e-18
9.518462533e-18
1.695383567e-17
3.00605503e-17
5.305993141e-17
9.323741647e-17
1.631099779e-16
2.84086477e-16
4.926214779e-16
8.505150694e-16
1.462074541e-15
2.502584181e-15
4.265328241e-15
7.238921137e-15
1.223393074e-14
2.058933674e-14
3.450773662e-14
5.759732913e-14
9.574461283e-14
1.58513928e-13
2.61382914e-13
4.292992271e-13
7.023177602e-13
1.144501944e-12
1.857928457e-12
3.004643128e-12
4.840969645e-12
7.77094048e-12
1.242927418e-11
1.98098187e-11
3.146393667e-11
4.980588049e-11
7.858216973e-11
1.235900244e-10
1.937761452e-10
3.029063022e-10
4.721009195e-10
7.336406519e-10
1.136671039e-09
1.755563536e-09
2.702130862e-09
4.142727735e-09
6.322058077e-09
9.593739197e-09
1.445940419e-08
2.161118381e-08
3.197913683e-08
4.676708757e-08
6.749003399e-08
9.599536888e-08
1.345556018e-07
2.752333087e-41
1.09905751e-40
3.50423217e-40
1.016474289e-39
2.816045771e-39
7.606727006e-39
2.021755044e-38
5.307882982e-38
1.37901618e-37
3.548298299e-37
9.046952858e-37
2.286329031e-36
5.728728487e-36
1.423461114e-35
3.508366091e-35
8.578514442e-35
2.08141322e-34
5.012026825e-34
1.198001384e-33
2.842842889e-33
6.698378955e-33
1.567342284e-32
3.642465564e-32
8.408407552e-32
1.92828065e-31
4.393470833e-31
9.946496405e-31
2.237661334e-30
5.002852479e-30
1.111660179e-29
2.455212985e-29
5.390098578e-29
1.17631034e-28
2.552049366e-28
5.504549331e-28
1.180433172e-27
2.516917311e-27
5.336095508e-27
1.124926621e-26
2.35824192e-26
4.9162433e-26
1.019238052e-25
2.101509266e-25
4.309391121e-25
8.7891077e-25
1.782924023e-24
3.597450529e-24
7.220133038e-24
1.441445737e-23
2.862649982e-23
5.655475252e-23
1.111513553e-22
2.173296887e-22
4.227617836e-22
8.181980458e-22
1.57550872e-21
3.018536357e-21
5.754382748e-21
1.091544113e-20
2.060333297e-20
3.869908699e-20
7.233431382e-20
1.345493988e-19
2.490727489e-19
4.58871413e-19
8.413745642e-19
1.535446067e-18
2.788943787e-18
5.042177496e-18
9.073666422e-18
1.625350035e-17
2.898167524e-17
5.144291741e-17
9.090048859e-17
1.599036388e-16
2.800366824e-16
4.882574846e-16
8.475655418e-16
1.464877055e-15
2.520840821e-15
4.319354455e-15
7.369436991e-15
1.25200141e-14
2.118085456e-14
3.568318518e-14
5.986579661e-14
1.000236802e-13
1.664370805e-13
2.758261163e-13
4.552754073e-13
7.484845152e-13
1.225684185e-12
1.999309212e-12
3.24868011e-12
5.25873321e-12
8.480594257e-12
1.362599561e-11
2.181402522e-11
3.479847393e-11
5.531925402e-11
8.76437826e-11
1.383997532e-10
2.178508839e-10
3.418496774e-10
5.348075305e-10
8.342097651e-10
1.297399279e-09
2.01175568e-09
3.109623799e-09
4.790131592e-09
7.349679443e-09
1.122427282e-08
1.704328971e-08
2.569739456e-08
3.84090292e-08
5.680737938e-08
8.297091758e-08
1.194641577e-07
1.693190728e-07
2.361367444e-07
4.534094159e-41
1.776580331e-40
5.596929666e-40
1.612798105e-39
4.454390442e-39
1.201972704e-38
3.194697128e-38
8.391653324e-38
2.181845362e-37
5.618918296e-37
1.433965963e-36
3.627396855e-36
9.098004448e-36
2.262949878e-35
5.583220325e-35
1.366630378e-34
3.319439436e-34
8.001936242e-34
1.91479262e-33
4.548905774e-33
1.073050106e-32
2.513716634e-32
5.848650049e-32
1.351719508e-31
3.103560239e-31
7.079762176e-31
1.60474284e-30
3.614572413e-30
8.091144125e-30
1.800096863e-29
3.980577681e-29
8.749592364e-29
1.911824483e-28
4.152890529e-28
8.968474739e-28
1.925632537e-27
4.110888353e-27
8.726183645e-27
1.841866182e-26
3.865932596e-26
8.069192972e-26
1.674949816e-25
3.457684992e-25
7.098986853e-25
1.449605757e-24
2.944156306e-24
5.94762971e-24
1.195125381e-23
2.3888221e-23
4.749731048e-23
9.39470433e-23
1.848587299e-22
3.618706646e-22
7.047532075e-22
1.365540799e-21
2.632508748e-21
5.049472896e-21
9.637110605e-21
1.830145783e-20
3.458406146e-20
6.503260756e-20
1.2169271e-19
2.266154496e-19
4.199710242e-19
7.74581782e-19
1.42182654e-18
2.597589772e-18
4.72337383e-18
8.548797763e-18
1.540075004e-17
2.761696239e-17
4.929696886e-17
8.759671666e-17
1.54950054e-16
2.728631534e-16
4.783659312e-16
8.349312394e-16
1.450872517e-15
2.510203512e-15
4.324167608e-15
7.416906304e-15
1.266725692e-14
2.154243667e-14
3.648149059e-14
6.152180616e-14
1.033184261e-13
1.727955203e-13
2.878109592e-13
4.774380388e-13
7.888180559e-13
1.298084338e-12
2.12770913e-12
3.473946023e-12
5.650084356e-12
9.15438194e-12
1.47763976e-11
2.376286632e-11
3.807570006e-11
6.07919819e-11
9.672264559e-11
1.533662439e-10
2.423769036e-10
3.818146934e-10
5.995922088e-10
9.387210004e-10
1.465292366e-09
2.280479724e-09
3.538561966e-09
5.473375689e-09
8.436980199e-09
1.295361541e-08
1.979439337e-08
3.007117121e-08
4.535337599e-08
6.778300027e-08
1.001889329e-07
1.461213171e-07
2.098599157e-07
2.962745423e-07
4.108979538e-07
7.425560241e-41
2.850967499e-40
8.872569609e-40
2.5404434e-39
6.997028773e-39
1.886528427e-38
5.014828688e-38
1.318026187e-37
3.42955167e-37
8.83984536e-37
2.25803707e-36
5.717443506e-36
1.435417268e-35
3.573894562e-35
8.826631452e-35
2.162784374e-34
5.258802182e-34
1.269067735e-33
3.040088838e-33
7.230246388e-33
1.707473931e-32
4.004461881e-32
9.327871402e-32
2.158327561e-31
4.961340959e-31
1.133103096e-30
2.571409849e-30
5.798833315e-30
1.299612087e-29
2.894820298e-29
6.409072323e-29
1.410461389e-28
3.085648723e-28
6.710799966e-28
1.451001202e-27
3.119232253e-27
6.667063564e-27
1.416925969e-26
2.994359061e-26
6.292482118e-26
1.314978032e-25
2.732810507e-25
5.64821207e-25
1.161016022e-24
2.37359372e-24
4.826476932e-24
9.761676095e-24
1.963826852e-23
3.929894502e-23
7.8229675e-23
1.549134332e-22
3.051738967e-22
5.980813069e-22
1.166114777e-21
2.262060635e-21
4.36578787e-21
8.383589509e-21
1.601842654e-20
3.045409054e-20
5.761303603e-20
1.084572598e-19
2.031760832e-19
3.787703388e-19
7.027195933e-19
1.297490421e-18
2.384270375e-18
4.360630737e-18
7.937774905e-18
1.438192666e-17
2.593685504e-17
4.655996153e-17
8.319860064e-17
1.479927928e-16
2.620590857e-16
4.619606021e-16
8.10719511e-16
1.416475886e-15
2.463959322e-15
4.267334353e-15
7.358533812e-15
1.263426934e-14
2.15996131e-14
3.676983637e-14
6.23304518e-14
1.052167452e-13
1.768718845e-13
2.960981939e-13
4.936620353e-13
8.197005481e-13
1.355586735e-12
2.232861718e-12
3.663325138e-12
5.986679547e-12
9.745689215e-12
1.580431572e-11
2.553276931e-11
4.109639233e-11
6.590527151e-11
1.053117379e-10
1.676897496e-10
2.660997936e-10
4.208523379e-10
6.634396198e-10
1.042559417e-09
1.633290124e-09
2.551053095e-09
3.972628414e-09
6.167727824e-09
9.545372566e-09
1.472168022e-08
2.261438554e-08
3.457325355e-08
5.254238225e-08
7.925876957e-08
1.184362222e-07
1.749311374e-07
2.5472563e-07
3.64835171e-07
5.128646534e-07
7.069617655e-07
1.205860893e-40
4.530107405e-40
1.392512324e-39
3.963006586e-39
1.088845165e-38
2.933947142e-38
7.801003232e-38
2.051581062e-37
5.342491411e-37
1.378249696e-36
3.523782927e-36
8.930748775e-36
2.244304109e-35
5.593352285e-35
1.382803619e-34
3.391737552e-34
8.255568931e-34
1.994360798e-33
4.78267456e-33
1.138701703e-32
2.692088285e-32
6.320674516e-32
1.473977727e-31
3.414439999e-31
7.857764467e-31
1.796680156e-30
4.082038705e-30
9.216234851e-30
2.06793014e-29
4.611632351e-29
1.022210846e-28
2.252266423e-28
4.933087389e-28
1.074139424e-27
2.325241986e-27
5.004513095e-27
1.070932062e-26
2.278699017e-26
4.821201106e-26
1.014340703e-25
2.122216251e-25
4.415588484e-25
9.136851221e-25
1.880306836e-24
3.848577375e-24
7.834760086e-24
1.586425727e-23
3.195189552e-23
6.401335081e-23
1.275720536e-22
2.52909728e-22
4.987860852e-22
9.786236286e-22
1.910219623e-21
3.709631531e-21
7.167565512e-21
1.377905784e-20
2.63565041e-20
5.016374691e-20
9.500345908e-20
1.790397826e-19
3.357636569e-19
6.266213373e-19
1.163797223e-18
2.151113727e-18
3.957096035e-18
7.244863254e-18
1.320192826e-17
2.394480363e-17
4.322799119e-17
7.76804596e-17
1.389519118e-16
2.474208468e-16
4.385711268e-16
7.739068693e-16
1.359549949e-15
2.377783497e-15
4.140311268e-15
7.177780073e-15
1.238957453e-14
2.129337157e-14
3.643904515e-14
6.209217505e-14
1.053578669e-13
1.780206291e-13
2.995436912e-13
5.019379384e-13
8.376328256e-13
1.392148187e-12
2.304412169e-12
3.799209847e-12
6.238800745e-12
1.020471703e-11
1.662690125e-11
2.698684074e-11
4.363598183e-11
7.029313139e-11
1.128190258e-10
1.804185846e-10
2.875021008e-10
4.565572066e-10
7.225717246e-10
1.139819622e-09
1.792258339e-09
2.809371827e-09
4.390281888e-09
6.84006501e-09
1.06243222e-08
1.644941435e-08
2.537971163e-08
3.900106454e-08
5.964558706e-08
9.066904685e-08
1.367837538e-07
2.043464293e-07
3.015813465e-07
4.384092828e-07
6.260858281e-07
8.760654085e-07
1.199644891e-06
1.936953337e-40
7.109633642e-40
2.158550296e-39
6.108321744e-39
1.674746932e-38
4.510872336e-38
1.199790561e-37
3.157396017e-37
8.228629193e-37
2.124633822e-36
5.436919142e-36
1.379212756e-35
3.469233259e-35
8.654491729e-35
2.141683007e-34
5.258363131e-34
1.281198048e-33
3.098285269e-33
7.437782226e-33
1.772736195e-32
4.195567242e-32
9.861378325e-32
2.302198276e-31
5.338919872e-31
1.230038943e-30
2.815658864e-30
6.404403235e-30
1.447604321e-29
3.251838319e-29
7.260159721e-29
1.61113378e-28
3.553950871e-28
7.793121334e-28
1.698847903e-27
3.681824917e-27
7.933368535e-27
1.699644118e-26
3.620616974e-26
7.669189944e-26
1.615383589e-25
3.383590646e-25
7.048096222e-25
1.460069131e-24
3.008137787e-24
6.163959385e-24
1.256244436e-23
2.546568686e-23
5.134731378e-23
1.029853194e-22
2.054670266e-22
4.07785797e-22
8.051169644e-22
1.581381035e-21
3.090141634e-21
6.007560736e-21
1.162008818e-20
2.236277349e-20
4.282135036e-20
8.158812393e-20
1.546816621e-19
2.918161931e-19
5.478377599e-19
1.023481223e-18
1.902858218e-18
3.520828623e-18
6.483484712e-18
1.188257223e-17
2.167524372e-17
3.935339728e-17
7.111779903e-17
1.279279118e-16
2.290637058e-16
4.082857527e-16
7.244394414e-16
1.279625187e-15
2.250189851e-15
3.939345499e-15
6.86610335e-15
1.191491033e-14
2.058628481e-14
3.541478344e-14
6.066291525e-14
1.03468171e-13
1.757307906e-13
2.97207313e-13
5.005583831e-13
8.3955076e-13
1.402328536e-12
2.332798491e-12
3.864949568e-12
6.377709345e-12
1.048227929e-11
1.71606444e-11
2.798440629e-11
4.545925212e-11
7.356525015e-11
1.186013511e-10
1.905010845e-10
3.048756093e-10
4.861773474e-10
7.725830136e-10
1.223513711e-09
1.931174594e-09
3.03823271e-09
4.764758516e-09
7.449218424e-09
1.161024932e-08
1.803947002e-08
2.793808641e-08
4.311645055e-08
6.62724797e-08
1.013732499e-07
1.541228883e-07
2.325123626e-07
3.47260572e-07
5.120802708e-07
7.431322553e-07
1.058026922e-06
1.473218651e-06
2.00296436e-06
3.069870491e-40
1.099329648e-39
3.296984702e-39
9.281339865e-39
2.540249342e-38
6.840611703e-38
1.820206614e-37
4.793355228e-37
1.250199437e-36
3.230738085e-36
8.27463457e-36
2.100955816e-35
5.289526175e-35
1.320783156e-34
3.271591121e-34
8.040380011e-34
1.960971598e-33
4.746930106e-33
1.140715846e-32
2.721617737e-32
6.448045835e-32
1.517172196e-31
3.545719152e-31
8.231589794e-31
1.898547538e-30
4.350691449e-30
9.906841962e-30
2.241749776e-29
5.041371224e-29
1.126808272e-28
2.503344799e-28
5.528235757e-28
1.213592837e-27
2.648516465e-27
5.746425736e-27
1.239591114e-26
2.658669877e-26
5.669880015e-26
1.202332911e-25
2.535326064e-25
5.316400687e-25
1.108644148e-24
2.299179271e-24
4.74214418e-24
9.727760598e-24
1.984731403e-23
4.027687994e-23
8.129976655e-23
1.632361344e-22
3.260248954e-22
6.47748739e-22
1.280257985e-21
2.517313107e-21
4.92424253e-21
9.583357412e-21
1.855604939e-20
3.574838653e-20
6.852419104e-20
1.306957215e-19
2.480402715e-19
4.684246859e-19
8.802933837e-19
1.646260313e-18
3.063841374e-18
5.674714422e-18
1.046031955e-17
1.919032441e-17
3.504041891e-17
6.368234199e-17
1.151979224e-16
2.074241082e-16
3.717712607e-16
6.632960107e-16
1.178058551e-15
2.082894036e-15
3.666241905e-15
6.424532068e-15
1.120833526e-14
1.946850712e-14
3.366888093e-14
5.797514033e-14
9.939959637e-14
1.696952827e-13
2.884761698e-13
4.883351238e-13
8.232026597e-13
1.381941085e-12
2.310360004e-12
3.846723274e-12
6.378779153e-12
1.053499305e-11
1.732991091e-11
2.839487274e-11
4.634277569e-11
7.534263165e-11
1.220212707e-10
1.968734705e-10
3.164597366e-10
5.068202453e-10
8.087620756e-10
1.286021078e-09
2.037829822e-09
3.218202322e-09
5.065464705e-09
7.947257594e-09
1.242897234e-08
1.93769101e-08
3.011320571e-08
4.664409663e-08
7.199325717e-08
1.10667578e-07
1.692937256e-07
2.57395863e-07
3.882896613e-07
5.797458893e-07
8.542371186e-07
1.237581124e-06
1.756540675e-06
2.43325251e-06
3.282764235e-06
4.788373595e-40
1.670483499e-39
4.950203865e-39
1.387011354e-38
3.790843603e-38
1.020786632e-37
2.717490211e-37
7.161219072e-37
1.869228697e-36
4.834388952e-36
1.239240618e-35
3.149209821e-35
7.935722034e-35
1.983330783e-34
4.917261225e-34
1.209621994e-33
2.952974268e-33
7.155231299e-33
1.72114155e-32
4.110557944e-32
9.748580392e-32
2.296111613e-31
5.371697545e-31
1.248372611e-30
2.882296306e-30
6.612036875e-30
1.507212681e-29
3.414216195e-29
7.686327945e-29
1.719839974e-28
3.824964759e-28
8.455957333e-28
1.858313863e-27
4.05993173e-27
8.818275867e-27
1.90429325e-26
4.088732558e-26
8.729037435e-26
1.853038835e-25
3.911649126e-25
8.211243113e-25
1.714143869e-24
3.558692732e-24
7.347736243e-24
1.508868334e-23
3.081756674e-23