/*--------------------------------*- C++ -*----------------------------------*\
  =========                 |
  \\      /  F ield         | OpenFOAM: The Open Source CFD Toolbox
   \\    /   O peration     | Website:  https://openfoam.org
    \\  /    A nd           | Version:  7
     \\/     M anipulation  |
\*---------------------------------------------------------------------------*/
FoamFile
{
    version     2.0;
    format      ascii;
    class       volScalarField;
    location    "0.361";
    object      Y_H2O;
}
// * * * * * * * * * * * * * * * * * * * * * * * * * * * * * * * * * * * * * //

dimensions      [0 0 0 0 0 0 0];

internalField   nonuniform List<scalar> 
35870
(
6.439193412e-68
5.570331783e-67
3.397848641e-66
1.769076459e-65
8.448842843e-65
3.839021087e-64
1.693412856e-63
7.330111784e-63
3.131289289e-62
1.323648915e-61
5.544319984e-61
2.302539729e-60
9.484443318e-60
3.875652081e-59
1.57142874e-58
6.322994707e-58
2.525223932e-57
1.001096375e-56
3.940207604e-56
1.539817566e-55
5.975167951e-55
2.302397244e-54
8.809865342e-54
3.347359379e-53
1.262848444e-52
4.730051531e-52
1.758668157e-51
6.489726448e-51
2.376328878e-50
8.632324324e-50
3.110218321e-49
1.111206064e-48
3.935872622e-48
1.381834646e-47
4.808068051e-47
1.657628242e-46
5.661693587e-46
1.91559666e-45
6.419922665e-45
2.131106439e-44
7.0068661e-44
2.281869365e-43
7.360747134e-43
2.352029109e-42
7.445388354e-42
2.335053084e-41
7.256332828e-41
2.234599339e-40
6.820349858e-40
2.063444277e-39
6.188819671e-39
1.840397491e-38
5.42704973e-38
1.587166351e-37
4.604088627e-37
1.324894263e-36
3.782563658e-36
1.071536941e-35
3.012239409e-35
8.403804642e-35
2.327053744e-34
6.39614079e-34
1.745200161e-33
4.727380463e-33
1.271377366e-32
3.394955554e-32
9.001717726e-32
2.370133659e-31
6.197257207e-31
1.60926404e-30
4.150276111e-30
1.06308615e-29
2.704710852e-29
6.835222274e-29
1.715860161e-28
4.278842488e-28
1.059994329e-27
2.608744501e-27
6.378650525e-27
1.549581795e-26
3.74030267e-26
8.97064031e-26
2.137877214e-25
5.062946613e-25
1.191529219e-24
2.786809704e-24
6.477882308e-24
1.496598736e-23
3.436764018e-23
7.845017566e-23
1.780199686e-22
4.016136271e-22
9.00848074e-22
2.009287188e-21
4.456867108e-21
9.832684812e-21
2.157920246e-20
4.711911799e-20
1.023874715e-19
2.214575839e-19
4.769257955e-19
1.022996446e-18
2.186398187e-18
4.6582098e-18
9.898641254e-18
2.099310226e-17
4.44665425e-17
9.41473201e-17
1.994261238e-16
4.230210773e-16
8.993009857e-16
1.917310715e-15
4.100157477e-15
8.791377105e-15
1.887644188e-14
4.050720869e-14
8.665324453e-14
1.843687406e-13
3.899611115e-13
8.238549523e-13
1.10173648e-67
9.472186739e-67
5.745756792e-66
2.979717541e-65
1.420237734e-64
6.451702131e-64
2.848908659e-63
1.235533279e-62
5.290705509e-62
2.242447676e-61
9.419302366e-61
3.923083488e-60
1.620699731e-59
6.642280382e-59
2.70122996e-58
1.090170354e-57
4.367046815e-57
1.736560261e-56
6.855978258e-56
2.687582114e-55
1.046143314e-54
4.043650583e-54
1.552089934e-53
5.915645692e-53
2.238713378e-52
8.411080397e-52
3.136872239e-51
1.16105086e-50
4.26408626e-50
1.553538386e-49
5.613565243e-49
2.01128633e-48
7.143806624e-48
2.514967196e-47
8.774291949e-47
3.033001185e-46
1.03862023e-45
3.523081438e-45
1.183701214e-44
3.939115718e-44
1.298340389e-43
4.238563404e-43
1.370588748e-42
4.390172683e-42
1.393086952e-41
4.379652423e-41
1.364311967e-40
4.211653088e-40
1.288611977e-39
3.908166898e-39
1.175054948e-38
3.502984467e-38
1.035554987e-37
3.036135501e-37
8.829540919e-37
2.54728508e-36
7.291052635e-36
2.070733031e-35
5.83612024e-35
1.632423054e-34
4.53198929e-34
1.248904538e-33
3.416549714e-33
9.278895155e-33
2.501984864e-32
6.698531049e-32
1.780764447e-31
4.700991089e-31
1.23239839e-30
3.208581436e-30
8.29651561e-30
2.130682444e-29
5.435017193e-29
1.377084533e-28
3.465896678e-28
8.665298148e-28
2.152196175e-27
5.310415788e-27
1.30179359e-26
3.170604636e-26
7.672666138e-26
1.844898836e-25
4.40797416e-25
1.0465609e-24
2.469270413e-24
5.789916228e-24
1.349266219e-23
3.125134551e-23
7.194681718e-23
1.646474146e-22
3.745677958e-22
8.47176252e-22
1.905131385e-21
4.260199382e-21
9.474163084e-21
2.095648221e-20
4.611391365e-20
1.009634066e-19
2.199929501e-19
4.771769037e-19
1.030636211e-18
2.217396768e-18
4.7541401e-18
1.016268508e-17
2.1671961e-17
4.613591226e-17
9.812038299e-17
2.086634992e-16
4.441196419e-16
9.470032392e-16
2.024711246e-15
4.343300427e-15
9.348876622e-15
2.018154898e-14
4.362626694e-14
9.422131152e-14
2.027064382e-13
4.332461051e-13
9.190407642e-13
1.943278815e-12
2.644147436e-67
2.25346181e-66
1.356394072e-65
6.996709042e-65
3.326238298e-64
1.510667382e-63
6.680884833e-63
2.904971253e-62
1.247976869e-61
5.308309931e-61
2.238034733e-60
9.356677389e-60
3.880302681e-59
1.596469243e-58
6.51777376e-58
2.64081008e-57
1.062058535e-56
4.240118287e-56
1.680722228e-55
6.615011945e-55
2.585283347e-54
1.00332218e-53
3.866633481e-53
1.47965923e-52
5.622018049e-52
2.120631393e-51
7.93984329e-51
2.950160789e-50
1.087614056e-49
3.977381798e-49
1.442484385e-48
5.186956978e-48
1.848863501e-47
6.531526147e-47
2.28650056e-46
7.930127919e-46
2.724504422e-45
9.271590587e-45
3.125036852e-44
1.043221862e-43
3.449194578e-43
1.129504724e-42
3.663604815e-42
1.177089933e-41
3.746535949e-41
1.18144686e-40
3.69157946e-40
1.143082894e-39
3.508172401e-39
1.0672499e-38
3.218779867e-38
9.625386128e-38
2.854347772e-37
8.394898864e-37
2.449061067e-36
7.087815457e-36
2.035186103e-35
5.798586449e-35
1.639497658e-34
4.60056878e-34
1.281335561e-33
3.542425038e-33
9.722055602e-33
2.648905062e-32
7.165633157e-32
1.924636205e-31
5.133027741e-31
1.359417933e-30
3.575271539e-30
9.338192244e-30
2.422336281e-29
6.240841823e-29
1.597009979e-28
4.059250329e-28
1.024885706e-27
2.570477579e-27
6.404399688e-27
1.585211042e-26
3.898149896e-26
9.523845332e-26
2.311884546e-25
5.576190793e-25
1.336426188e-24
3.182783153e-24
7.532580096e-24
1.771642858e-23
4.141207213e-23
9.621007603e-23
2.221691096e-22
5.099713269e-22
1.163695882e-21
2.639986749e-21
5.954893268e-21
1.335685561e-20
2.979522649e-20
6.610968262e-20
1.459258383e-19
3.205051635e-19
7.006043612e-19
1.524634461e-18
3.304078283e-18
7.133353623e-18
1.534916659e-17
3.293488629e-17
7.051274027e-17
1.507435976e-16
3.220454524e-16
6.882071225e-16
1.472531492e-15
3.158014156e-15
6.794167113e-15
1.467301994e-14
3.180943841e-14
6.917538857e-14
1.506298923e-13
3.275554392e-13
7.088696225e-13
1.521873988e-12
3.236482407e-12
6.843633983e-12
7.155671459e-67
6.038950072e-66
3.60490767e-65
1.849303895e-64
8.769459143e-64
3.982578476e-63
1.764260564e-62
7.692283215e-62
3.315562168e-61
1.415351331e-60
5.989572853e-60
2.513614167e-59
1.046431418e-58
4.32199194e-58
1.771389335e-57
7.205329601e-57
2.909236089e-56
1.166088571e-55
4.640693178e-55
1.833805626e-54
7.195679196e-54
2.803793387e-53
1.084873272e-52
4.168128584e-52
1.589991047e-51
6.021089412e-51
2.263134203e-50
8.441299946e-50
3.123763043e-49
1.146599507e-48
4.173563307e-48
1.5061183e-47
5.38731053e-47
1.90973873e-46
6.707988263e-46
2.334182226e-45
8.0454652e-45
2.746663559e-44
9.286998423e-44
3.109926128e-43
1.03140989e-42
3.387908138e-42
1.102236295e-41
3.552167073e-41
1.134041589e-40
3.586975515e-40
1.124199413e-39
3.491672686e-39
1.074878554e-38
3.279979072e-38
9.92270133e-38
2.976442107e-37
8.853880608e-37
2.612139846e-36
7.644360112e-36
2.219322676e-35
6.392697094e-35
1.827169674e-34
5.182608365e-34
1.458926258e-33
4.076350774e-33
1.130571682e-32
3.112758975e-32
8.508329984e-32
2.308993592e-31
6.221658806e-31
1.664635637e-30
4.422672511e-30
1.166876147e-29
3.057453195e-29
7.956273431e-29
2.056332677e-28
5.27872672e-28
1.345968563e-27
3.4090082e-27
8.576810149e-27
2.143608632e-26
5.322368317e-26
1.312873622e-25
3.217503621e-25
7.8344895e-25
1.895463504e-24
4.556710134e-24
1.088522828e-23
2.584008307e-23
6.095955148e-23
1.429236305e-22
3.330469886e-22
7.713887844e-22
1.775977467e-21
4.064726006e-21
9.248951878e-21
2.092491932e-20
4.707544586e-20
1.05327141e-19
2.344052864e-19
5.189806065e-19
1.143357514e-18
2.507051875e-18
5.472940441e-18
1.189862446e-17
2.57731414e-17
5.564551285e-17
1.198205657e-16
2.574801752e-16
5.52595704e-16
1.185462762e-15
2.544659295e-15
5.471083365e-15
1.179530097e-14
2.552190786e-14
5.545989889e-14
1.210190084e-13
2.649571415e-13
5.807742738e-13
1.270681114e-12
2.763959694e-12
5.955295279e-12
1.268410276e-11
2.679180472e-11
2.036984672e-66
1.70062063e-65
1.006288847e-64
5.133370556e-64
2.428446368e-63
1.103012602e-62
4.895323399e-62
2.140427081e-61
9.256707957e-61
3.965721088e-60
1.684483422e-59
7.095862993e-59
2.965317874e-58
1.229441121e-57
5.05840549e-57
2.065572743e-56
8.372666987e-56
3.369177353e-55
1.346148117e-54
5.340501437e-54
2.103898251e-53
8.230454714e-53
3.197271772e-52
1.23326605e-51
4.722962501e-51
1.79548973e-50
6.774648188e-50
2.536476364e-49
9.421472853e-49
3.470909611e-48
1.267942968e-47
4.591793525e-47
1.648149462e-46
5.862359862e-46
2.066018993e-45
7.212618609e-45
2.494033075e-44
8.541398019e-44
2.897035238e-43
9.73124808e-43
3.237261926e-42
1.066588665e-41
3.480585052e-41
1.125068877e-40
3.60264456e-40
1.142952298e-39
3.592964649e-39
1.119329819e-38
3.456214595e-38
1.057874758e-37
3.21012157e-37
9.658824466e-37
2.882057717e-36
8.529318244e-36
2.50388444e-35
7.292135675e-35
2.107098765e-34
6.041583683e-34
1.719077376e-33
4.854658809e-33
1.360748114e-32
3.786054687e-32
1.045725968e-31
2.867483031e-31
7.806617418e-31
2.110226471e-30
5.664001566e-30
1.509622593e-29
3.995632097e-29
1.050255562e-28
2.74167705e-28
7.10833829e-28
1.830494571e-27
4.682038299e-27
1.189556061e-26
3.002170695e-26
7.526682179e-26
1.874593996e-25
4.638368429e-25
1.140241995e-24
2.784965066e-24
6.758507294e-24
1.629702359e-23
3.90491155e-23
9.297788287e-23
2.200062473e-22
5.17368948e-22
1.209206965e-21
2.809074412e-21
6.486619973e-21
1.489018361e-20
3.398179268e-20
7.710817774e-20
1.739853753e-19
3.904272273e-19
8.714652954e-19
1.935173424e-18
4.276048843e-18
9.404255502e-18
2.059184666e-17
4.490579684e-17
9.757281557e-17
2.113389884e-16
4.565755887e-16
9.844927566e-16
2.120497664e-15
4.56637341e-15
9.842040883e-15
2.12540179e-14
4.604255547e-14
1.00144312e-13
2.188478517e-13
4.804072406e-13
1.058280176e-12
2.333618448e-12
5.133558114e-12
1.121493567e-11
2.423020307e-11
5.163558976e-11
1.08825604e-10
5.939169118e-66
4.899952886e-65
2.872570605e-64
1.457083129e-63
6.877615268e-63
3.124933095e-62
1.389683263e-61
6.094032194e-61
2.644444671e-60
1.137008595e-59
4.847506178e-59
2.049681351e-58
8.598018004e-58
3.578408686e-57
1.47796068e-56
6.058552503e-56
2.465371031e-55
9.959582217e-55
3.995013086e-54
1.59116699e-53
6.293219548e-53
2.471648312e-52
9.639493676e-52
3.732802764e-51
1.43510841e-50
5.476818875e-50
2.074375786e-49
7.795837716e-49
2.906403889e-48
1.07462568e-47
3.939677733e-47
1.431726013e-46
5.156582633e-46
1.840346547e-45
6.50717102e-45
2.279056949e-44
7.90581175e-44
2.716038184e-43
9.240739103e-43
3.113533446e-42
1.038923994e-41
3.43332889e-41
1.123769936e-40
3.643407309e-40
1.170180383e-39
3.723603907e-39
1.17407369e-38
3.668707892e-38
1.136240917e-37
3.488383759e-37
1.061789915e-36
3.204612815e-36
9.591689434e-36
2.84744013e-35
8.385109378e-35
2.449678963e-34
7.100754844e-34
2.04239692e-33
5.829862408e-33
1.651574502e-32
4.644041379e-32
1.296240874e-31
3.591683531e-31
9.880132821e-31
2.698396986e-30
7.317319484e-30
1.970265849e-29
5.268007838e-29
1.398742305e-28
3.688235661e-28
9.658470792e-28
2.512032377e-27
6.489139211e-27
1.664988867e-26
4.243410668e-26
1.074274373e-25
2.701648771e-25
6.749532979e-25
1.675207907e-24
4.130788398e-24
1.012006583e-23
2.463412382e-23
5.958163308e-23
1.431950765e-22
3.419828497e-22
8.116382198e-22
1.914369125e-21
4.487648861e-21
1.045609442e-20
2.421630699e-20
5.575297281e-20
1.276110443e-19
2.904104069e-19
6.571890932e-19
1.479040875e-18
3.310930579e-18
7.373576243e-18
1.63402698e-17
3.604135074e-17
7.914741615e-17
1.731078198e-16
3.77250106e-16
8.195693495e-16
1.776042226e-15
3.841729824e-15
8.301979046e-15
1.793978343e-14
3.880890859e-14
8.414109908e-14
1.830623494e-13
4.000385568e-13
8.786734e-13
1.93925608e-12
4.29568996e-12
9.523182375e-12
2.104911613e-11
4.614928144e-11
9.989462376e-11
2.127827975e-10
4.469471911e-10
1.750269673e-65
1.425410492e-64
8.275054106e-64
4.173528036e-63
1.965914354e-62
8.937465148e-62
3.983223475e-61
1.752000463e-60
7.628773436e-60
3.29193891e-59
1.408683494e-58
5.978679732e-58
2.517423232e-57
1.051709729e-56
4.360423945e-56
1.794351242e-55
7.330173061e-55
2.972792291e-54
1.197097527e-53
4.786586475e-53
1.900591991e-52
7.493904808e-52
2.934117782e-51
1.140647156e-50
4.402319863e-50
1.686508659e-49
6.41195331e-49
2.418711419e-48
9.050429965e-48
3.358411999e-47
1.235581197e-46
4.505821489e-46
1.628362786e-45
5.830951562e-45
2.068476369e-44
7.267861726e-44
2.529123282e-43
8.715915084e-43
2.974552438e-42
1.005294113e-41
3.364633658e-41
1.115260164e-40
3.661338797e-40
1.190609697e-39
3.835427921e-39
1.224124489e-38
3.871348702e-38
1.213363687e-37
3.769298154e-37
1.160735014e-36
3.54383444e-36
1.072861285e-35
3.221093153e-35
9.592009879e-35
2.833458358e-34
8.303784399e-34
2.414544823e-33
6.966892817e-33
1.994936791e-32
5.669486365e-32
1.599257712e-31
4.478023512e-31
1.244738018e-30
3.434959434e-30
9.411154021e-30
2.560154723e-29
6.915356899e-29
1.854853916e-28
4.940513552e-28
1.306836753e-27
3.433019294e-27
8.956842617e-27
2.320999534e-26
5.973842455e-26
1.527242548e-25
3.878417859e-25
9.78386593e-25
2.451846352e-24
6.104103515e-24
1.509784875e-23
3.710132873e-23
9.058622551e-23
2.197612954e-22
5.2975543e-22
1.268980343e-21
3.020723028e-21
7.146056855e-21
1.680143613e-20
3.926250824e-20
9.119930919e-20
2.105817307e-19
4.83396728e-19
1.10327568e-18
2.503871705e-18
5.651257969e-18
1.26867884e-17
2.833414265e-17
6.296736383e-17
1.392760892e-16
3.067098804e-16
6.726999841e-16
1.4701088e-15
3.202779596e-15
6.960318521e-15
1.50993709e-14
3.272698037e-14
7.093901929e-14
1.539639773e-13
3.34976042e-13
7.315644566e-13
1.605270577e-12
3.541810517e-12
7.854227364e-12
1.748354009e-11
3.894105514e-11
8.642039735e-11
1.900032003e-10
4.116938627e-10
8.756364188e-10
1.830882791e-09
5.170882428e-65
4.152193863e-64
2.385958078e-63
1.196524491e-62
5.625818353e-62
2.559662864e-61
1.143448273e-60
5.045017435e-60
2.204381082e-59
9.546682136e-59
4.10030138e-58
1.746723483e-57
7.382534349e-57
3.09588598e-56
1.288483694e-55
5.322591388e-55
2.182706259e-54
8.886338105e-54
3.592311733e-53
1.44199253e-52
5.748072328e-52
2.275287722e-51
8.943264063e-51
3.490203286e-50
1.352224669e-49
5.200030062e-49
1.984433281e-48
7.513362181e-48
2.821610095e-47
1.050777828e-46
3.8794285e-46
1.419579775e-45
5.147522329e-45
1.849377078e-44
6.581750701e-44
2.319949909e-43
8.098473685e-43
2.799560227e-42
9.583565875e-42
3.248740583e-41
1.090602819e-40
3.625810664e-40
1.193890846e-39
3.893928978e-39
1.258135277e-38
4.027507517e-38
1.277554835e-37
4.016163541e-37
1.251379462e-36
3.865252205e-36
1.183700634e-35
3.59453689e-35
1.082531486e-34
3.233637739e-34
9.58184694e-34
2.816856239e-33
8.216465402e-33
2.37823202e-32
6.831451729e-32
1.947596634e-31
5.511211897e-31
1.548066854e-30
4.316746543e-30
1.195019931e-29
3.284510168e-29
8.963278784e-29
2.428770905e-28
6.535078273e-28
1.746142956e-27
4.633325567e-27
1.220979489e-26
3.195540559e-26
8.306500887e-26
2.144602045e-25
5.499800153e-25
1.400991044e-24
3.545103477e-24
8.911381097e-24
2.225372234e-23
5.521028501e-23
1.360859973e-22
3.332728789e-22
8.10956437e-22
1.960761641e-21
4.710877063e-21
1.124733176e-20
2.668645029e-20
6.292891201e-20
1.474873446e-19
3.435849931e-19
7.956496016e-19
1.831704741e-18
4.192547538e-18
9.541990976e-18
2.159709038e-17
4.861994953e-17
1.088866007e-16
2.426440763e-16
5.381562763e-16
1.188297176e-15
2.613198088e-15
5.725897822e-15
1.25070901e-14
2.725148368e-14
5.927271656e-14
1.288105696e-13
2.799681729e-13
6.093562738e-13
1.329742594e-12
2.913488497e-12
6.415625953e-12
1.420977952e-11
3.164050935e-11
7.072902015e-11
1.581597974e-10
3.521604517e-10
7.757951608e-10
1.681140231e-09
3.566507546e-09
7.414014529e-09
1.522414338e-64
1.203981283e-63
6.845086368e-63
3.413470289e-62
1.60240739e-61
7.29827489e-61
3.268369852e-60
1.446618627e-59
6.342918657e-59
2.756898453e-58
1.188440062e-57
5.081504002e-57
2.155723109e-56
9.074062053e-56
3.790867242e-55
1.571930954e-54
6.470901601e-54
2.644604389e-53
1.073219377e-52
4.324727605e-52
1.730620086e-51
6.876977626e-51
2.713525642e-50
1.06305363e-49
4.134340224e-49
1.59587105e-48
6.112816711e-48
2.322881475e-47
8.754892428e-47
3.271882262e-46
1.212154662e-45
4.450652666e-45
1.619230775e-44
5.836615581e-44
2.083847486e-43
7.368359588e-43
2.580146645e-42
8.946708448e-42
3.071982151e-41
1.044511484e-40
3.516922514e-40
1.172717107e-39
3.872942859e-39
1.266926977e-38
4.105630882e-38
1.318199325e-37
4.193944044e-37
1.322369533e-36
4.132715296e-36
1.280373493e-35
3.932967948e-35
1.19797657e-34
3.618925859e-34
1.084353341e-33
3.223109327e-33
9.504784552e-33
2.781116388e-32
8.075118556e-32
2.326866626e-31
6.654627901e-31
1.889034348e-30
5.322940969e-30
1.488977186e-29
4.13500211e-29
1.140090781e-28
3.121063723e-28
8.483741051e-28
2.289889713e-27
6.137675535e-27
1.633707962e-26
4.318613166e-26
1.133786314e-25
2.956326111e-25
7.656398215e-25
1.969537936e-24
5.032553397e-24
1.277360095e-23
3.220746228e-23
8.067460064e-23
2.007575156e-22
4.963382342e-22
1.219190019e-21
2.975573147e-21
7.215957416e-21
1.738846136e-20
4.163830089e-20
9.908592588e-20
2.343377095e-19
5.50820573e-19
1.286900736e-18
2.988680697e-18
6.900022796e-18
1.583798386e-17
3.614731668e-17
8.204170084e-17
1.852004259e-16
4.158859298e-16
9.292323709e-16
2.066326083e-15
4.574363176e-15
1.008488929e-14
2.215199962e-14
4.85035708e-14
1.059339395e-13
2.309461735e-13
5.030485936e-13
1.095904267e-12
2.39090966e-12
5.230359806e-12
1.1490141e-11
2.537445968e-11
5.637816599e-11
1.259581128e-10
2.82541885e-10
6.338257238e-10
1.414851967e-09
3.120410923e-09
6.756220209e-09
1.428057176e-08
2.947533076e-08
4.44560883e-64
3.458388979e-63
1.944678098e-62
9.644546689e-62
4.521625625e-61
2.062031963e-60
9.258515805e-60
4.111160527e-59
1.808892217e-58
7.890475462e-58
3.413823372e-57
1.465041279e-56
6.238154704e-56
2.635606483e-55
1.105210117e-54
4.600195905e-54
1.900877395e-53
7.798388021e-53
3.176837408e-52
1.285085017e-51
5.162300349e-51
2.059231232e-50
8.156456718e-50
3.20754228e-49
1.252156976e-48
4.851398877e-48
1.865112703e-47
7.113116897e-47
2.690456921e-46
1.008991553e-45
3.750881635e-45
1.381831889e-44
5.044128706e-44
1.824029568e-43
6.532913725e-43
2.317206333e-42
8.13904376e-42
2.83081416e-41
9.749278387e-41
3.32477373e-40
1.12279109e-39
3.755013036e-39
1.243765128e-38
4.080630553e-38
1.326285352e-37
4.270986778e-37
1.36287338e-36
4.309991096e-36
1.351007513e-35
4.198219781e-35
1.293488073e-34
3.951946043e-34
1.197484474e-33
3.599108993e-33
1.073097303e-32
3.174325941e-32
9.317044304e-32
2.713697831e-31
7.8440566e-31
2.250359699e-30
6.408088035e-30
1.811347649e-29
5.082763641e-29
1.415952482e-28
3.916269105e-28
1.07546052e-27
2.932487204e-27
7.939952732e-27
2.13481038e-26
5.70005355e-26
1.51145349e-25
3.980377703e-25
1.041080781e-24
2.70453041e-24
6.978516172e-24
1.788605146e-23
4.553680713e-23
1.15166075e-22
2.893471857e-22
7.222100377e-22
1.790908669e-21
4.412306828e-21
1.080085123e-20
2.627051518e-20
6.349170807e-20
1.524837861e-19
3.639239169e-19
8.631799604e-19
2.034800343e-18
4.767605319e-18
1.110372146e-17
2.570765314e-17
5.91728229e-17
1.35423799e-16
3.082012776e-16
6.975972186e-16
1.570651433e-15
3.518437199e-15
7.843655681e-15
1.740666391e-14
3.846709841e-14
8.468951631e-14
1.858454081e-13
4.067581781e-13
8.885824641e-13
1.939320064e-12
4.232920475e-12
9.252290611e-12
2.027904531e-11
4.463881656e-11
9.879218647e-11
2.200236834e-10
4.928273122e-10
1.108403267e-09
2.492383977e-09
5.573021773e-09
1.22941691e-08
2.657046258e-08
5.588949549e-08
1.14378278e-07
1.282138225e-63
9.799412234e-63
5.448212665e-62
2.687764114e-61
1.258852087e-60
5.749502795e-60
2.588580065e-59
1.153190903e-58
5.091655441e-58
2.228933587e-57
9.678341497e-57
4.168575458e-56
1.781486911e-55
7.554509328e-55
3.179662203e-54
1.32841058e-53
5.509846866e-53
2.268966491e-52
9.278185014e-52
3.767460769e-51
1.519183127e-50
6.083018073e-50
2.418555781e-49
9.546773977e-49
3.740743366e-48
1.454661558e-47
5.612720506e-47
2.148207061e-46
8.153859646e-46
3.068447346e-45
1.144536366e-44
4.230461413e-44
1.549297318e-43
5.620295741e-43
2.019252169e-42
7.184311512e-42
2.53112152e-41
8.829880329e-41
3.050051815e-40
1.043225887e-39
3.533375097e-39
1.185147221e-38
3.9370149e-38
1.295458412e-37
4.222846399e-37
1.363871934e-36
4.364931567e-36
1.384463308e-35
4.352645132e-35
1.356620534e-34
4.192379835e-34
1.284757836e-33
3.904802074e-33
1.177197525e-32
3.520662822e-32
1.04465518e-31
3.075672724e-31
8.986024672e-31
2.605516802e-30
7.498152518e-30
2.141813393e-29
6.073043324e-29
1.709446953e-28
4.77699759e-28
1.325343834e-27
3.650889799e-27
9.985887674e-27
2.712142295e-26
7.314678511e-26
1.95908533e-25
5.210801591e-25
1.376467641e-24
3.611225241e-24
9.409937385e-24
2.435447742e-23
6.261048481e-23
1.598850636e-22
4.05581659e-22
1.02206122e-21
2.558703109e-21
6.363898566e-21
1.572546593e-20
3.860807932e-20
9.418143859e-20
2.282885027e-19
5.498627866e-19
1.316126678e-18
3.130667853e-18
7.401117893e-18
1.739025739e-17
4.061568065e-17
9.429630563e-17
2.176444497e-16
4.994561421e-16
1.139713195e-15
2.586446521e-15
5.838374951e-15
1.311134737e-14
2.930012105e-14
6.517529021e-14
1.443550303e-13
3.184932241e-13
7.003237608e-13
1.5356893e-12
3.360672268e-12
7.346489999e-12
1.605897405e-11
3.515034845e-11
7.714436606e-11
1.700383118e-10
3.768464273e-10
8.405832028e-10
1.885963904e-09
4.249040396e-09
9.568577526e-09
2.141250728e-08
4.720342483e-08
1.017257241e-07
2.126702853e-07
4.309048957e-07
3.63779434e-63
2.728207371e-62
1.499360977e-61
7.359712152e-61
3.444760279e-60
1.576035887e-59
7.115809646e-59
3.180454698e-58
1.409117068e-57
6.190378918e-57
2.697539109e-56
1.166038955e-55
5.001225406e-55
2.128528744e-54
8.991754089e-54
3.770470923e-53
1.569681997e-52
6.488101319e-52
2.663031804e-51
1.085399731e-50
4.393182162e-50
1.765684496e-49
7.04640847e-49
2.791739034e-48
1.097911425e-47
4.284925754e-47
1.659219805e-46
6.372799459e-46
2.427248115e-45
9.165165315e-45
3.429993359e-44
1.271935457e-43
4.67309699e-43
1.700537915e-42
6.128500465e-42
2.187089401e-41
7.728498712e-41
2.704102953e-40
9.368070923e-40
3.21356385e-39
1.091585523e-38
3.671944475e-38
1.223334178e-37
4.036975274e-37
1.319785536e-36
4.274943365e-36
1.372139035e-35
4.364897077e-35
1.37633782e-34
4.302458404e-34
1.333560322e-33
4.098964063e-33
1.249566455e-32
3.778534494e-32
1.133490368e-31
3.373577307e-31
9.962913336e-31
2.919751025e-30
8.491937231e-30
2.451341641e-29
7.0237519e-29
1.997709478e-28
5.640529604e-28
1.581091406e-27
4.400146321e-27
1.215828509e-26
3.335748922e-26
9.087614831e-26
2.458446843e-25
6.604564427e-25
1.762047022e-24
4.668719352e-24
1.22857492e-23
3.211038033e-23
8.335763403e-23
2.149401464e-22
5.505264573e-22
1.400696895e-21
3.540248485e-21
8.889196752e-21
2.217411972e-20
5.495431124e-20
1.353149942e-19
3.310522814e-19
8.04771345e-19
1.94398603e-18
4.6663722e-18
1.113148984e-17
2.638997973e-17
6.218173696e-17
1.456310702e-16
3.39035325e-16
7.846436365e-16
1.805423056e-15
4.13060246e-15
9.397957335e-15
2.126700064e-14
4.787548833e-14
1.072381249e-13
2.390740993e-13
5.306408613e-13
1.173085408e-12
2.584182504e-12
5.676075215e-12
1.243972755e-11
2.722812856e-11
5.958296098e-11
1.305319997e-10
2.866855303e-10
6.322901077e-10
1.402129017e-09
3.129531328e-09
7.026508116e-09
1.584232331e-08
3.569323716e-08
7.985928461e-08
1.75747938e-07
3.772461031e-07
7.828250535e-07
1.567901611e-06
1.011508718e-62
7.433942469e-62
4.037865686e-61
1.972728046e-60
9.230598095e-60
4.231340672e-59
1.915996775e-58
8.591831719e-58
3.81969067e-57
1.683876353e-56
7.363496323e-56
3.194220433e-55
1.374904645e-54
5.872617435e-54
2.489790385e-53
1.04782805e-52
4.378149787e-52
1.816309063e-51
7.482511999e-51
3.06100082e-50
1.24352749e-49
5.016354677e-49
2.009250395e-48
7.98952013e-48
3.153386174e-47
1.235087616e-46
4.799323471e-46
1.849705171e-45
7.068967511e-45
2.678099263e-44
1.005532377e-43
3.740867836e-43
1.378681682e-42
5.032412739e-42
1.819105871e-41
6.511276978e-41
2.307673974e-40
8.097828478e-40
2.813524494e-39
9.679090863e-39
3.297213845e-38
1.112305997e-37
3.716305842e-37
1.229893332e-36
4.032325708e-36
1.309864197e-35
4.216430692e-35
1.345174966e-34
4.253974318e-34
1.333701979e-33
4.146047534e-33
1.278151093e-32
3.908053614e-32
1.185287486e-31
3.566340159e-31
1.064645441e-30
3.153654599e-30
9.270225567e-30
2.704397275e-29
7.83048427e-29
2.250484918e-28
6.420395666e-28
1.818325726e-27
5.112465897e-27
1.427121806e-26
3.955351851e-26
1.088486499e-25
2.974364432e-25
8.070808777e-25
2.174750931e-24
5.81954285e-24
1.546578286e-23
4.082019847e-23
1.070076074e-22
2.786163466e-22
7.205546042e-22
1.851022448e-21
4.72343108e-21
1.197353625e-20
3.015236244e-20
7.543452523e-20
1.87493036e-19
4.63002452e-19
1.136009579e-18
2.769488398e-18
6.708954597e-18
1.614983519e-17
3.863318306e-17
9.184492644e-17
2.170086964e-16
5.096288756e-16
1.189641977e-15
2.760569179e-15
6.368552324e-15
1.460791506e-14
3.331922727e-14
7.558286894e-14
1.705490811e-13
3.828790825e-13
8.55402589e-13
1.902416141e-12
4.213393654e-12
9.29702267e-12
2.045009235e-11
4.487268914e-11
9.831019052e-11
2.152740797e-10
4.717917632e-10
1.036302106e-09
2.285301639e-09
5.066338923e-09
1.130406271e-08
2.53712937e-08
5.71826826e-08
1.287560994e-07
2.877122275e-07
6.314046056e-07
1.348349268e-06
2.773211111e-06
5.481351199e-06
2.745547395e-62
1.974745513e-61
1.060027344e-60
5.15661266e-60
2.412924405e-59
1.108441225e-58
5.033948518e-58
2.26474052e-57
1.010238153e-56
4.46881681e-56
1.960929429e-55
8.535933047e-55
3.687013306e-54
1.580382783e-53
6.724055942e-53
2.839923364e-52
1.190866522e-51
4.958233359e-51
2.050002751e-50
8.416739931e-50
3.431692531e-49
1.389344716e-48
5.584910219e-48
2.228699642e-47
8.827561917e-47
3.469563169e-46
1.352843082e-45
5.231606842e-45
2.005983417e-44
7.62453182e-44
2.871903514e-43
1.071791558e-42
3.962146037e-42
1.450609697e-41
5.259215847e-41
1.887992223e-40
6.710641475e-40
2.361570728e-39
8.22840925e-39
2.838737992e-38
9.697477725e-38
3.280611033e-37
1.09916e-36
3.647864429e-36
1.199360709e-35
3.907042407e-35
1.261247869e-34
4.035288464e-34
1.27978819e-33
4.023988088e-33
1.254567333e-32
3.878917901e-32
1.189498964e-31
3.618331439e-31
1.091927484e-30
3.269392172e-30
9.713393633e-30
2.863815867e-29
8.379643717e-29
2.43358015e-28
7.015135592e-28
2.007358388e-27
5.702137772e-27
1.608046475e-26
4.502255692e-26
1.251565424e-25
3.454528801e-25
9.467928897e-25
2.576738416e-24
6.963898902e-24
1.869039352e-23
4.981784419e-23
1.318767462e-22
3.46724357e-22
9.054182379e-22
2.34843591e-21
6.050464955e-21
1.548445067e-20
3.93656153e-20
9.941853616e-20
2.494379505e-19
6.217540335e-19
1.539757494e-18
3.788616773e-18
9.262356219e-18
2.250054393e-17
5.431436893e-17
1.302887539e-16
3.105929609e-16
7.358553585e-16
1.732747549e-15
4.055538743e-15
9.435492496e-15
2.182327516e-14
5.018302151e-14
1.147425489e-13
2.609038892e-13
5.900574883e-13
1.32753931e-12
2.971946331e-12
6.622082934e-12
1.469133023e-11
3.246544685e-11
7.150114234e-11
1.570423047e-10
3.442767886e-10
7.540849679e-10
1.652451641e-09
3.627821784e-09
7.993218652e-09
1.769946855e-08
3.943617397e-08
8.837930381e-08
1.988774578e-07
4.469908943e-07
9.963680153e-07
2.177890063e-06
4.620898615e-06
9.405372026e-06
1.831253662e-05
7.244907291e-62
5.092825116e-61
2.701808479e-60
1.30927867e-59
6.128837266e-59
2.821858656e-58
1.285345042e-57
5.801391927e-57
2.596404021e-56
1.15238474e-55
5.073757055e-55
2.216128448e-54
9.605092004e-54
4.131285782e-53
1.763840186e-52
7.475664653e-52
3.1457822e-51
1.31438927e-50
5.453650427e-50
2.247067686e-49
9.194293991e-49
3.735544606e-48
1.506901917e-47
6.034391899e-47
2.398389897e-46
9.458704822e-46
3.700489635e-45
1.435744287e-44
5.522990228e-44
2.105920713e-43
7.957041279e-43
2.978659092e-42
1.104429838e-41
4.055423925e-41
1.474572392e-40
5.308695396e-40
1.892254514e-39
6.677786707e-39
2.333213087e-38
8.07168761e-38
2.764995576e-37
9.379625685e-37
3.151283511e-36
1.048729667e-35
3.457608649e-35
1.129484019e-34
3.656321695e-34
1.17310613e-33
3.731012484e-33
1.176463297e-32
3.678373603e-32
1.140563285e-31
3.507729745e-31
1.070112452e-30
3.238761704e-30
9.725697485e-30
2.897990419e-29
8.569316197e-29
2.51480277e-28
7.324920325e-28
2.117741902e-27
6.077734215e-27
1.731545862e-26
4.89749057e-26
1.375253188e-25
3.834263303e-25
1.061429374e-24
2.917621298e-24
7.963672614e-24
2.158549027e-23
5.810203799e-23
1.553167188e-22
4.123429737e-22
1.087247522e-21
2.84736722e-21
7.406609558e-21
1.913692545e-20
4.911542812e-20
1.252198193e-19
3.171411024e-19
7.97943132e-19
1.994560248e-18
4.95329949e-18
1.222167775e-17
2.996216443e-17
7.298595687e-17
1.766639207e-16
4.249307693e-16
1.015713394e-15
2.412842233e-15
5.696597265e-15
1.336771799e-14
3.11805629e-14
7.229843328e-14
1.66659663e-13
3.819735515e-13
8.705412326e-13
1.973153854e-12
4.448583542e-12
9.978440082e-12
2.22736771e-11
4.949342276e-11
1.095203016e-10
2.414628994e-10
5.307322665e-10
1.163910017e-09
2.549147683e-09
5.582793991e-09
1.224312204e-08
2.693146563e-08
5.950939777e-08
1.322621793e-07
2.955968148e-07
6.632302042e-07
1.485938258e-06
3.299658998e-06
7.174324458e-06
1.510240622e-05
3.03699182e-05
5.81363733e-05
1.850381047e-61
1.269509434e-60
6.657221516e-60
3.215306712e-59
1.506186553e-58
6.951472627e-58
3.175750447e-57
1.437927353e-56
6.45619781e-56
2.874897183e-55
1.269927439e-54
5.565228216e-54
2.420103202e-53
1.044421785e-52
4.474210894e-52
1.902759829e-51
8.034264492e-51
3.368481329e-50
1.40247027e-49
5.798588952e-49
2.380795258e-48
9.706242156e-48
3.928856398e-47
1.57865417e-46
6.295488326e-46
2.491027874e-45
9.777338797e-45
3.805655751e-44
1.46862708e-43
5.617240437e-43
2.128853027e-42
7.992613303e-42
2.972116085e-41
1.094479543e-40
3.990831326e-40
1.44077089e-39
5.149710656e-39
1.822305087e-38
6.384397611e-38
2.21463027e-37
7.606755978e-37
2.587365767e-36
8.716221244e-36
2.908544065e-35
9.615292128e-35
3.149534408e-34