/*--------------------------------*- C++ -*----------------------------------*\
  =========                 |
  \\      /  F ield         | OpenFOAM: The Open Source CFD Toolbox
   \\    /   O peration     | Website:  https://openfoam.org
    \\  /    A nd           | Version:  7
     \\/     M anipulation  |
\*---------------------------------------------------------------------------*/
FoamFile
{
    version     2.0;
    format      ascii;
    class       volScalarField;
    location    "0.361";
    object      Y_HCO;
}
// * * * * * * * * * * * * * * * * * * * * * * * * * * * * * * * * * * * * * //

dimensions      [0 0 0 0 0 0 0];

internalField   nonuniform List<scalar> 
35870
(
-9.665253575e-88
-9.749968926e-87
-6.535499873e-86
-3.58929259e-85
-1.747865745e-84
-7.876684718e-84
-3.373582451e-83
-1.396631423e-82
-5.648354222e-82
-2.245224659e-81
-8.801230621e-81
-3.407262903e-80
-1.303392314e-79
-4.926244349e-79
-1.839131794e-78
-6.779377742e-78
-2.466564904e-77
-8.854635237e-77
-3.135606422e-76
-1.095140872e-75
-3.772182189e-75
-1.281454405e-74
-4.294061754e-74
-1.41969643e-73
-4.632811e-73
-1.492854341e-72
-4.752955909e-72
-1.496132918e-71
-4.659709637e-71
-1.437052079e-70
-4.392019746e-70
-1.331304016e-69
-4.005223024e-69
-1.196677777e-68
-3.552435755e-68
-1.048054336e-67
-3.07305152e-67
-8.953837795e-67
-2.591437176e-66
-7.446128529e-66
-2.122716408e-65
-5.99937451e-65
-1.679743442e-64
-4.655679236e-64
-1.276546207e-63
-3.460710077e-63
-9.272785375e-63
-2.455455756e-62
-6.428031574e-62
-1.665300286e-61
-4.278439586e-61
-1.094176709e-60
-2.80261684e-60
-7.25583064e-60
-1.921730477e-59
-5.275811918e-59
-1.516877836e-58
-4.581070108e-58
-1.444401542e-57
-4.694885695e-57
-1.550503129e-56
-5.136623449e-56
-1.690685748e-55
-5.492637419e-55
-1.753919701e-54
-5.490763496e-54
-1.682622049e-53
-5.042980793e-53
-1.477464502e-52
-4.230117719e-52
-1.183370543e-51
-3.234248612e-51
-8.63516657e-51
-2.252027004e-50
-5.736401061e-50
-1.426989881e-49
-3.46629456e-49
-8.22090132e-49
-1.903374579e-48
-4.301552693e-48
-9.487870258e-48
-2.04223623e-47
-4.289409554e-47
-8.790598712e-47
-1.757786474e-46
-3.429861001e-46
-6.532539358e-46
-1.215799323e-45
-2.221256637e-45
-4.064406749e-45
-8.080153334e-45
-2.185799905e-44
-9.764380075e-44
-5.975066134e-43
-3.923357302e-42
-2.51509541e-41
-1.536996334e-40
-8.925744883e-40
-4.944658802e-39
-2.631735044e-38
-1.356870831e-37
-6.824408716e-37
-3.36040907e-36
-1.619123849e-35
-7.603788185e-35
-3.461654314e-34
-1.519538095e-33
-6.403696957e-33
-2.582243188e-32
-9.935228124e-32
-3.635411445e-31
-1.260204279e-30
-4.121219098e-30
-1.268157055e-29
-3.674974612e-29
-1.009084035e-28
-2.652266629e-28
-6.745754557e-28
-1.677458831e-27
-4.157091966e-27
-1.992234704e-87
-1.993276135e-86
-1.324687873e-85
-7.220651002e-85
-3.496384894e-84
-1.570048547e-83
-6.71418706e-83
-2.77986857e-82
-1.125704207e-81
-4.483806747e-81
-1.7619721e-80
-6.839187916e-80
-2.62321046e-79
-9.94048482e-79
-3.720472918e-78
-1.374729907e-77
-5.013171697e-77
-1.803570439e-76
-6.400051502e-76
-2.23971847e-75
-7.729463964e-75
-2.63070869e-74
-8.831652428e-74
-2.925330522e-73
-9.564115184e-73
-3.087918925e-72
-9.851494188e-72
-3.107797717e-71
-9.701805745e-71
-2.999533654e-70
-9.192124896e-70
-2.79436584e-69
-8.432701498e-69
-2.527664841e-68
-7.528727075e-68
-2.228742577e-67
-6.557343362e-67
-1.917000905e-66
-5.566148586e-66
-1.604233308e-65
-4.586214018e-65
-1.299517424e-64
-3.646811583e-64
-1.012805665e-63
-2.781860374e-63
-7.552921801e-63
-2.026418223e-62
-5.372512317e-62
-1.408238185e-61
-3.654119403e-61
-9.410116464e-61
-2.415665382e-60
-6.225737487e-60
-1.627538889e-59
-4.372242382e-59
-1.222972679e-58
-3.592958727e-58
-1.108816175e-57
-3.562690486e-57
-1.175072128e-56
-3.920793081e-56
-1.30757731e-55
-4.32084731e-55
-1.406630121e-54
-4.495057758e-54
-1.406994204e-53
-4.308229975e-53
-1.28955314e-52
-3.771681488e-52
-1.077664578e-51
-3.007605545e-51
-8.197830452e-51
-2.182094915e-50
-5.671502025e-50
-1.439195678e-49
-3.565167544e-49
-8.620128996e-49
-2.034017439e-48
-4.683071167e-48
-1.051898562e-47
-2.30470823e-47
-4.924862447e-47
-1.026255575e-46
-2.085275795e-46
-4.131483851e-46
-7.982052483e-46
-1.504287401e-45
-2.768906441e-45
-5.005547563e-45
-9.113544625e-45
-1.852006043e-44
-5.452242935e-44
-2.695744435e-43
-1.741048595e-42
-1.169693888e-41
-7.573058639e-41
-4.639119857e-40
-2.683817859e-39
-1.472859936e-38
-7.730845059e-38
-3.920321967e-37
-1.938691489e-36
-9.404484442e-36
-4.479655764e-35
-2.088635225e-34
-9.483095203e-34
-4.171135938e-33
-1.770150986e-32
-7.224274582e-32
-2.825489756e-31
-1.053565344e-30
-3.720028075e-30
-1.234737296e-29
-3.836529431e-29
-1.118639319e-28
-3.097084958e-28
-8.278799113e-28
-2.159584338e-27
-5.49981095e-27
-1.379292703e-26
-6.040649283e-87
-5.979037772e-86
-3.929992118e-85
-2.121979224e-84
-1.020374152e-83
-4.562652471e-83
-1.947907882e-82
-8.067525676e-82
-3.272672434e-81
-1.306954185e-80
-5.15169726e-80
-2.006164429e-79
-7.719927688e-79
-2.934718398e-78
-1.101749306e-77
-4.082837943e-77
-1.492986243e-76
-5.385341523e-76
-1.915794637e-75
-6.720455346e-75
-2.324670965e-74
-7.92991289e-74
-2.668164382e-73
-8.857778011e-73
-2.902650976e-72
-9.394035797e-72
-3.004541683e-71
-9.503582666e-71
-2.975289038e-70
-9.227121996e-70
-2.837036952e-69
-8.655038605e-69
-2.621693454e-68
-7.889341326e-68
-2.359404554e-67
-7.013330825e-67
-2.071890769e-66
-6.081246407e-66
-1.772480222e-65
-5.126816144e-65
-1.470496414e-64
-4.179095913e-64
-1.175866199e-63
-3.273171034e-63
-9.008187661e-63
-2.449941275e-62
-6.582923202e-62
-1.747752066e-61
-4.58828321e-61
-1.192997279e-60
-3.081770264e-60
-7.951437777e-60
-2.066302917e-59
-5.471590748e-59
-1.497036047e-58
-4.28563256e-58
-1.291701515e-57
-4.084825464e-57
-1.339477521e-56
-4.485465385e-56
-1.512144667e-55
-5.075686122e-55
-1.683447041e-54
-5.490107986e-54
-1.755241178e-53
-5.491579159e-53
-1.679648201e-52
-5.019366863e-52
-1.465030634e-51
-4.175672726e-51
-1.162061981e-50
-3.157218899e-50
-8.373377969e-50
-2.16750032e-49
-5.475378481e-49
-1.349557619e-48
-3.244964734e-48
-7.610021789e-48
-1.740319817e-47
-3.880183979e-47
-8.432713255e-47
-1.78603791e-46
-3.685951725e-46
-7.411210448e-46
-1.451715989e-45
-2.77043784e-45
-5.152743373e-45
-9.354062375e-45
-1.668898626e-44
-3.023562263e-44
-6.35692158e-44
-2.091315055e-43
-1.15575257e-42
-7.879277322e-42
-5.421136444e-41
-3.548641409e-40
-2.179791316e-39
-1.255244158e-38
-6.809847146e-38
-3.512923434e-37
-1.744127197e-36
-8.436825887e-36
-4.011787233e-35
-1.881748604e-34
-8.69289398e-34
-3.939022368e-33
-1.74347149e-32
-7.513530735e-32
-3.141905516e-31
-1.267889735e-30
-4.891169026e-30
-1.78219075e-29
-6.063145639e-29
-1.917278295e-28
-5.681714202e-28
-1.616441757e-27
-4.53029124e-27
-1.251558183e-26
-3.323228984e-26
-8.413611454e-26
-2.061064692e-86
-2.016044911e-85
-1.309732778e-84
-7.003161873e-84
-3.344247871e-83
-1.489422308e-82
-6.349942689e-82
-2.631507986e-81
-1.069594996e-80
-4.283182783e-80
-1.693626672e-79
-6.616771976e-79
-2.554459611e-78
-9.741185579e-78
-3.668016544e-77
-1.363161081e-76
-4.998228182e-76
-1.807543566e-75
-6.446002164e-75
-2.266537833e-74
-7.858114516e-74
-2.686567112e-73
-9.059602799e-73
-3.014371544e-72
-9.9007316e-72
-3.211926894e-71
-1.029889324e-70
-3.266415601e-70
-1.025586077e-69
-3.19054323e-69
-9.842840124e-69
-3.013565572e-68
-9.163029978e-68
-2.768306159e-67
-8.312606255e-67
-2.481044333e-66
-7.359232209e-66
-2.168501018e-65
-6.34402316e-65
-1.841349974e-64
-5.298187574e-64
-1.510002331e-63
-4.259290577e-63
-1.188192029e-62
-3.27611412e-62
-8.924154487e-62
-2.4012801e-61
-6.384157107e-61
-1.67867761e-60
-4.374483154e-60
-1.134041543e-59
-2.943263474e-59
-7.721927078e-59
-2.074733086e-58
-5.791510796e-58
-1.698799054e-57
-5.252543507e-57
-1.699883229e-56
-5.677607129e-56
-1.926406602e-55
-6.550581005e-55
-2.210262452e-54
-7.351366608e-54
-2.400251408e-53
-7.674188032e-53
-2.399214183e-52
-7.328421294e-52
-2.186030906e-51
-6.366354714e-51
-1.809838127e-50
-5.021630449e-50
-1.359719305e-49
-3.592450561e-49
-9.259717875e-49
-2.328029982e-48
-5.707839543e-48
-1.36441881e-47
-3.179163516e-47
-7.218653622e-47
-1.596864817e-46
-3.440617639e-46
-7.218600394e-46
-1.47441966e-45
-2.931319193e-45
-5.671943807e-45
-1.068156378e-44
-1.958510946e-44
-3.502362633e-44
-6.161243832e-44
-1.112476873e-43
-2.449327858e-43
-9.132617675e-43
-5.602872101e-42
-4.008396224e-41
-2.821519879e-40
-1.867967669e-39
-1.150811193e-38
-6.594344149e-38
-3.532777125e-37
-1.787521038e-36
-8.663449888e-36
-4.084104844e-35
-1.896397955e-34
-8.733862313e-34
-3.995123975e-33
-1.812690953e-32
-8.143462091e-32
-3.614681339e-31
-1.57688619e-30
-6.686453665e-30
-2.708460754e-29
-1.028413578e-28
-3.60783541e-28
-1.16872985e-27
-3.571377815e-27
-1.075043265e-26
-3.279697077e-26
-9.84030306e-26
-2.732661918e-25
-6.898795381e-25
-7.380534894e-86
-7.126271994e-85
-4.572523869e-84
-2.420496993e-83
-1.147931884e-82
-5.093396726e-82
-2.169198426e-81
-8.997501012e-81
-3.665036051e-80
-1.471862009e-79
-5.838500558e-79
-2.288464925e-78
-8.863256769e-78
-3.390389793e-77
-1.280422116e-76
-4.771842985e-76
-1.754330367e-75
-6.360367794e-75
-2.273710535e-74
-8.013420893e-74
-2.784557033e-73
-9.541161926e-73
-3.224608309e-72
-1.075328015e-71
-3.540113819e-71
-1.15124157e-70
-3.700878389e-70
-1.17700009e-69
-3.706456438e-69
-1.156731099e-68
-3.580732669e-68
-1.100306891e-67
-3.358456257e-67
-1.01870021e-66
-3.071410413e-66
-9.204651054e-66
-2.741236539e-65
-8.108674806e-65
-2.380873614e-64
-6.933778478e-64
-2.001181216e-63
-5.718939414e-63
-1.616979829e-62
-4.520004517e-62
-1.24843245e-61
-3.405812423e-61
-9.176582291e-61
-2.443082582e-60
-6.434835459e-60
-1.681069162e-59
-4.37593809e-59
-1.143533803e-58
-3.033429741e-58
-8.28498883e-58
-2.363690014e-57
-7.11052337e-57
-2.254438535e-56
-7.455576102e-56
-2.53146666e-55
-8.687099093e-55
-2.97524735e-54
-1.008073153e-53
-3.359832186e-53
-1.097727726e-52
-3.508628434e-52
-1.09581929e-51
-3.342059793e-51
-9.949519099e-51
-2.890716237e-50
-8.195120712e-50
-2.266679291e-49
-6.11566605e-49
-1.609314076e-48
-4.129465266e-48
-1.033007261e-47
-2.51859502e-47
-5.983261861e-47
-1.384574198e-46
-3.120021163e-46
-6.844246177e-46
-1.461098114e-45
-3.034456873e-45
-6.129201446e-45
-1.203767012e-44
-2.298394521e-44
-4.266171926e-44
-7.700848953e-44
-1.354568861e-43
-2.346741639e-43
-4.232337364e-43
-9.910144797e-43
-4.242199366e-42
-2.868113998e-41
-2.144548259e-40
-1.544043693e-39
-1.034381286e-38
-6.393146001e-38
-3.6446173e-37
-1.926602189e-36
-9.546833317e-36
-4.505675331e-35
-2.063174361e-34
-9.321659066e-34
-4.204788144e-33
-1.906173285e-32
-8.720514727e-32
-4.034925166e-31
-1.882910894e-30
-8.750013492e-30
-3.958642076e-29
-1.695760465e-28
-6.715281989e-28
-2.427078324e-27
-8.086501441e-27
-2.591374604e-26
-8.502750412e-26
-2.886489948e-25
-9.391702436e-25
-2.689582846e-24
-6.686321118e-24
-2.702978951e-85
-2.573126726e-84
-1.629463322e-83
-8.537119906e-83
-4.021289983e-82
-1.778083224e-81
-7.567087523e-81
-3.142416897e-80
-1.28306165e-79
-5.168049025e-79
-2.05666735e-78
-8.087673398e-78
-3.14239244e-77
-1.205720749e-76
-4.566865274e-76
-1.706680537e-75
-6.290983542e-75
-2.286515289e-74
-8.193455177e-74
-2.894348047e-73
-1.008010648e-72
-3.461566979e-72
-1.172500204e-71
-3.918840823e-71
-1.29314848e-70
-4.21562505e-70
-1.358726295e-69
-4.333284039e-69
-1.368698335e-68
-4.285398517e-68
-1.331202289e-67
-4.105780936e-67
-1.258092975e-66
-3.831492587e-66
-1.159940204e-65
-3.490394314e-65
-1.043616574e-64
-3.09881664e-64
-9.131231684e-64
-2.667982229e-63
-7.722841475e-63
-2.212757837e-62
-6.270473087e-62
-1.756179061e-61
-4.858503422e-61
-1.327297446e-60
-3.580895165e-60
-9.546717281e-60
-2.519125657e-59
-6.599890234e-59
-1.726226343e-58
-4.547207618e-58
-1.22159721e-57
-3.398104092e-57
-9.924012589e-57
-3.063245318e-56
-9.951290261e-56
-3.357220446e-55
-1.156603694e-54
-4.007568794e-54
-1.380678193e-53
-4.693255079e-53
-1.566503426e-52
-5.11930788e-52
-1.635271869e-51
-5.101039799e-51
-1.553062581e-50
-4.613696837e-50
-1.337068998e-49
-3.77950323e-49
-1.041892538e-48
-2.800530751e-48
-7.338303454e-48
-1.87405901e-47
-4.663192697e-47
-1.130218915e-46
-2.667326561e-46
-6.127335823e-46
-1.369571704e-45
-2.977466545e-45
-6.293349833e-45
-1.292751454e-44
-2.579780854e-44
-4.999700702e-44
-9.407934193e-44
-1.718678003e-43
-3.049244626e-43
-5.266150142e-43
-8.971686399e-43
-1.621239421e-42
-4.115477515e-42
-2.04257462e-41
-1.509912099e-40
-1.176494592e-39
-8.663989717e-39
-5.875478252e-38
-3.643918703e-37
-2.066669042e-36
-1.077701844e-35
-5.226805155e-35
-2.399362181e-34
-1.065239141e-33
-4.672916666e-33
-2.06242584e-32
-9.298170691e-32
-4.340098677e-31
-2.110681334e-30
-1.058535019e-29
-5.315935743e-29
-2.573238534e-28
-1.158886226e-27
-4.744109594e-27
-1.755783532e-26
-6.034443896e-26
-2.06192422e-25
-7.510453104e-25
-2.825554656e-24
-9.763379919e-24
-2.833791102e-23
-6.886874329e-23
-9.991296624e-85
-9.365772646e-84
-5.849233531e-83
-3.032390651e-82
-1.418864746e-81
-6.254091423e-81
-2.660587965e-80
-1.106490223e-79
-4.529368621e-79
-1.829989527e-78
-7.306402422e-78
-2.882558914e-77
-1.123549063e-76
-4.324079886e-76
-1.642541769e-75
-6.155107341e-75
-2.274730459e-74
-8.288146969e-74
-2.976987264e-73
-1.054028845e-72
-3.679060293e-72
-1.266205522e-71
-4.298428886e-71
-1.439926055e-70
-4.762718956e-70
-1.556492768e-69
-5.029996083e-69
-1.608753599e-68
-5.097003665e-68
-1.601168732e-67
-4.991511506e-67
-1.545325503e-66
-4.753889918e-66
-1.453672914e-65
-4.418904249e-65
-1.335107333e-64
-4.007671057e-64
-1.194455982e-63
-3.531939436e-63
-1.03524298e-62
-3.005141254e-62
-8.631722313e-62
-2.451258277e-61
-6.877679907e-61
-1.905630938e-60
-5.212912166e-60
-1.408159171e-59
-3.759587158e-59
-9.940614756e-59
-2.612899911e-58
-6.872316985e-58
-1.827159681e-57
-4.979893361e-57
-1.41348776e-56
-4.231055354e-56
-1.340122221e-55
-4.455350485e-55
-1.530508452e-54
-5.340052546e-54
-1.865406122e-53
-6.457465718e-53
-2.200488722e-52
-7.351532174e-52
-2.402161571e-51
-7.666609418e-51
-2.38809948e-50
-7.257133521e-50
-2.150952532e-49
-6.216849534e-49
-1.751907822e-48
-4.812537452e-48
-1.288444679e-47
-3.361062528e-47
-8.540437605e-47
-2.113165197e-46
-5.089534579e-46
-1.192729368e-45
-2.718574314e-45
-6.023895418e-45
-1.297008223e-44
-2.712175627e-44
-5.505312497e-44
-1.084238572e-43
-2.070903419e-43
-3.834776698e-43
-6.883153605e-43
-1.197919414e-42
-2.026744111e-42
-3.389210798e-42
-6.163981117e-42
-1.735542014e-41
-1.003948374e-40
-8.047844016e-40
-6.518786089e-39
-4.909311093e-38
-3.370510502e-37
-2.09777651e-36
-1.183919675e-35
-6.093157319e-35
-2.894585785e-34
-1.293699785e-33
-5.574085478e-33
-2.376017099e-32
-1.028009256e-31
-4.641138747e-31
-2.245828985e-30
-1.172010432e-29
-6.401345166e-29
-3.470709735e-28
-1.776926344e-27
-8.290688068e-27
-3.465114663e-26
-1.304955071e-25
-4.646114442e-25
-1.71588172e-24
-6.952912341e-24
-2.84055878e-23
-1.018568434e-22
-2.957470274e-22
-7.004395649e-22
-3.696419174e-84
-3.407589356e-83
-2.097321703e-82
-1.07571666e-81
-5.000840407e-81
-2.198175642e-80
-9.351243439e-80
-3.895761319e-79
-1.599039977e-78
-6.480902065e-78
-2.596066597e-77
-1.027541656e-76
-4.017691196e-76
-1.550875728e-75
-5.907923013e-75
-2.219846514e-74
-8.224825715e-74
-3.004079766e-73
-1.081550062e-72
-3.837999033e-72
-1.342619234e-71
-4.631022134e-71
-1.575609139e-70
-5.290170311e-70
-1.753952516e-69
-5.746490145e-69
-1.862054423e-68
-5.97274082e-68
-1.898277342e-67
-5.983395825e-67
-1.872023994e-66
-5.817799896e-66
-1.796872066e-65
-5.517044598e-65
-1.683967913e-64
-5.108415889e-64
-1.539390098e-63
-4.604866819e-63
-1.366245037e-62
-4.016850944e-62
-1.169190735e-61
-3.366206155e-61
-9.578668113e-61
-2.692112601e-60
-7.469826072e-60
-2.045961244e-59
-5.533641699e-59
-1.479641545e-58
-3.921121675e-58
-1.034578786e-57
-2.738809393e-57
-7.360043979e-57
-2.038818747e-56
-5.915217781e-56
-1.816433661e-55
-5.900987885e-55
-2.004654289e-54
-6.99858339e-54
-2.468645259e-53
-8.682063342e-53
-3.016933543e-52
-1.029933223e-51
-3.442494299e-51
-1.124362028e-50
-3.584517592e-50
-1.114762361e-49
-3.380727251e-49
-9.995794931e-49
-2.880881966e-48
-8.091968292e-48
-2.21467646e-47
-5.904494262e-47
-1.532995218e-46
-3.874668177e-46
-9.530036836e-46
-2.279997229e-45
-5.303349449e-45
-1.198728483e-44
-2.631520354e-44
-5.607276282e-44
-1.15899996e-43
-2.32232147e-43
-4.508151091e-43
-8.47356886e-43
-1.541423817e-42
-2.712874201e-42
-4.620258085e-42
-7.636428863e-42
-1.250467606e-41
-2.303041398e-41
-7.379278735e-41
-4.971643414e-40
-4.28592745e-39
-3.600891696e-38
-2.771888822e-37
-1.926288505e-36
-1.203217041e-35
-6.760730831e-35
-3.438602914e-34
-1.604008693e-33
-7.006615739e-33
-2.944421641e-32
-1.22614557e-31
-5.231054481e-31
-2.387747987e-30
-1.21620419e-29
-6.889664353e-29
-4.085424469e-28
-2.35545791e-27
-1.252595701e-26
-5.962542468e-26
-2.518012715e-25
-9.614356382e-25
-3.565881814e-24
-1.434112575e-23
-6.393801067e-23
-2.769701104e-22
-1.012258527e-21
-2.915281417e-21
-6.716441257e-21
-1.360278749e-83
-1.231571135e-82
-7.46520926e-82
-3.787730243e-81
-1.749969723e-80
-7.674018557e-80
-3.265747318e-79
-1.363232811e-78
-5.611445606e-78
-2.28160713e-77
-9.16954756e-77
-3.641078486e-76
-1.428083411e-75
-5.528842456e-75
-2.112064618e-74
-7.956930264e-74
-2.95558034e-73
-1.082106671e-72
-3.904884369e-72
-1.388798419e-71
-4.869045438e-71
-1.683143236e-70
-5.739302415e-70
-1.931414841e-69
-6.418981715e-69
-2.108420577e-68
-6.850685245e-68
-2.203922901e-67
-7.026955629e-67
-2.222523067e-66
-6.979145562e-66
-2.177351399e-65
-6.751939476e-65
-2.081585414e-64
-6.379615603e-64
-1.943033953e-63
-5.877617631e-63
-1.764503768e-62
-5.252397855e-62
-1.54879022e-61
-4.519767308e-61
-1.30418802e-60
-3.718133203e-60
-1.046646045e-59
-2.908016861e-59
-7.974490951e-59
-2.159530044e-58
-5.783745152e-58
-1.536640486e-57
-4.07221493e-57
-1.086178396e-56
-2.954872023e-56
-8.334756698e-56
-2.475513921e-55
-7.801848954e-55
-2.597312184e-54
-9.00019334e-54
-3.187163294e-53
-1.13470359e-52
-4.012880032e-52
-1.398581282e-51
-4.78047176e-51
-1.597987397e-50
-5.21552607e-50
-1.660578162e-49
-5.155170817e-49
-1.559994047e-48
-4.600546332e-48
-1.32196541e-47
-3.700522829e-47
-1.008854075e-46
-2.677836315e-46
-6.917922435e-46
-1.738707827e-45
-4.249495958e-45
-1.009462202e-44
-2.329401747e-44
-5.218340827e-44
-1.134139386e-43
-2.389629164e-43
-4.877349392e-43
-9.635480211e-43
-1.840988847e-42
-3.399337281e-42
-6.062055014e-42
-1.043524789e-41
-1.733891376e-41
-2.789405104e-41
-4.458038551e-41
-8.383197605e-41
-3.138231753e-40
-2.445167175e-39
-2.248887318e-38
-1.955700205e-37
-1.53771964e-36
-1.081341764e-35
-6.779614593e-35
-3.796174884e-34
-1.912503707e-33
-8.798598454e-33
-3.783108788e-32
-1.565543846e-31
-6.435826659e-31
-2.732412736e-30
-1.271798971e-29
-6.864640033e-29
-4.203977579e-28
-2.662196468e-27
-1.600368036e-26
-8.697087567e-26
-4.17610774e-25
-1.770190464e-24
-6.844822613e-24
-2.657007e-23
-1.162663015e-22
-5.599261678e-22
-2.518433641e-21
-9.2625609e-21
-2.630357887e-20
-5.885808055e-20
-4.953845607e-83
-4.398852184e-82
-2.624243264e-81
-1.317155862e-80
-6.049823079e-80
-2.647886808e-79
-1.127639319e-78
-4.717638876e-78
-1.947679037e-77
-7.944920597e-77
-3.20345199e-76
-1.276098491e-75
-5.020353727e-75
-1.949280899e-74
-7.466921523e-74
-2.820399901e-73
-1.050227258e-72
-3.854227408e-72
-1.394006415e-71
-4.968873645e-71
-1.745868312e-70
-6.04836379e-70
-2.067007247e-69
-6.972004852e-69
-2.322730968e-68
-7.649076763e-68
-2.492238642e-67
-8.041799942e-67
-2.57235618e-66
-8.164385302e-66
-2.573307954e-65
-8.059569881e-65
-2.509360466e-64
-7.767871371e-64
-2.390358482e-63
-7.309022128e-63
-2.219246119e-62
-6.685559452e-62
-1.996401366e-61
-5.903478306e-61
-1.727032426e-60
-4.993887499e-60
-1.426236372e-59
-4.0207384e-59
-1.118522407e-58
-3.070796682e-58
-8.326407707e-58
-2.233958463e-57
-5.952555006e-57
-1.585519131e-56
-4.266027937e-56
-1.176781805e-55
-3.385970894e-55
-1.030767308e-54
-3.333950419e-54
-1.13592554e-53
-4.007427819e-53
-1.436792914e-52
-5.155355253e-52
-1.831390426e-51
-6.397172339e-51
-2.188271552e-50
-7.313075589e-50
-2.384603082e-49
-7.581191223e-49
-2.34903372e-48
-7.091883104e-48
-2.085770688e-47
-5.974666713e-47
-1.666464391e-46
-4.524636335e-46
-1.195421647e-45
-3.072041922e-45
-7.675293762e-45
-1.863343134e-44
-4.393035053e-44
-1.005131464e-43
-2.230237719e-43
-4.795119303e-43
-9.981062345e-43
-2.009352136e-42
-3.908297951e-42
-7.337051037e-42
-1.328098129e-41
-2.315888982e-41
-3.886992014e-41
-6.276276907e-41
-9.778681992e-41
-1.517710812e-40
-2.943715114e-40
-1.318565041e-39
-1.173902723e-38
-1.143855773e-37
-1.027927309e-36
-8.250603563e-36
-5.870323394e-35
-3.695972672e-34
-2.065529287e-33
-1.034347818e-32
-4.723751403e-32
-2.019938408e-31
-8.343723418e-31
-3.432614973e-30
-1.463633312e-29
-6.961129888e-29
-3.956644577e-28
-2.577453519e-27
-1.708775443e-26
-1.053742749e-25
-5.788056622e-25
-2.784798396e-24
-1.180679396e-23
-4.62105054e-23
-1.878341789e-22
-8.856965533e-22
-4.513245422e-21
-2.07311229e-20
-7.603459523e-20
-2.118991311e-19
-4.593793161e-19
-1.777222766e-82
-1.54554174e-81
-9.069115645e-81
-4.503230343e-80
-2.057130091e-79
-8.990545693e-79
-3.832849813e-78
-1.607440428e-77
-6.656630465e-77
-2.724207507e-76
-1.101994274e-75
-4.403626779e-75
-1.737658857e-74
-6.766145197e-74
-2.598842628e-73
-9.841447818e-73
-3.673563813e-72
-1.351299209e-71
-4.898393652e-71
-1.749836446e-70
-6.161569118e-70
-2.139252304e-69
-7.32708055e-69
-2.477130653e-68
-8.272714329e-68
-2.731421004e-67
-8.924590758e-67
-2.888493474e-66
-9.269917051e-66
-2.952572067e-65
-9.34107372e-65
-2.937112746e-64
-9.181734045e-64
-2.853842771e-63
-8.81726311e-63
-2.706522356e-62
-8.247925911e-62
-2.493113313e-61
-7.467505762e-61
-2.214144103e-60
-6.492491996e-60
-1.88108675e-59
-5.381183258e-59
-1.519097065e-58
-4.230887492e-58
-1.162847846e-57
-3.157180945e-57
-8.487218162e-57
-2.269052103e-56
-6.07954557e-56
-1.652211194e-55
-4.629266482e-55
-1.360971814e-54
-4.249983226e-54
-1.410030697e-53
-4.909001845e-53
-1.759748303e-52
-6.376735073e-52
-2.302901077e-51
-8.210075722e-51
-2.872517224e-50
-9.829430683e-50
-3.283241176e-49
-1.069358263e-48
-3.394195957e-48
-1.049537585e-47
-3.160866266e-47
-9.26979564e-47
-2.646595113e-46
-7.354158329e-46
-1.988170922e-45
-5.227181932e-45
-1.335867701e-44
-3.316659086e-44
-7.994842012e-44
-1.869780573e-43
-4.239390064e-43
-9.310415012e-43
-1.978611579e-42
-4.064363987e-42
-8.059840245e-42
-1.540938346e-41
-2.836492229e-41
-5.020450839e-41
-8.533015763e-41
-1.390719108e-40
-2.170419249e-40
-3.250877894e-40
-4.85750067e-40
-9.819863209e-40
-5.364051395e-39
-5.382537811e-38
-5.530899839e-37
-5.133152635e-36
-4.205190533e-35
-3.028641476e-34
-1.917079727e-33
-1.071990223e-32
-5.363002189e-32
-2.45302494e-31
-1.056849634e-30
-4.423752306e-30
-1.844234096e-29
-7.93107601e-29
-3.82682261e-28
-2.25396612e-27
-1.532583044e-26
-1.047175495e-25
-6.556721607e-25
-3.619204586e-24
-1.739720866e-23
-7.365799331e-23
-2.911797366e-22
-1.230835578e-21
-6.146490092e-21
-3.248793456e-20
-1.504678795e-19
-5.464470203e-19
-1.48762901e-18
-3.112157529e-18
-6.25380939e-82
-5.31836134e-81
-3.067919278e-80
-1.507307491e-79
-6.851397469e-79
-2.991450248e-78
-1.277110038e-77
-5.370055118e-77
-2.230757217e-76
-9.159056362e-76
-3.716922168e-75
-1.489900938e-74
-5.89643864e-74
-2.30238748e-73
-8.866743192e-73
-3.366128848e-72
-1.259489557e-71
-4.643552219e-71
-1.686985861e-70
-6.039391658e-70
-2.131168289e-69
-7.415265998e-69
-2.545412894e-68
-8.625420966e-68
-2.887640608e-67
-9.559256861e-67
-3.132247248e-66
-1.016890488e-65
-3.274323194e-65
-1.046630372e-64
-3.323751125e-64
-1.049204658e-63
-3.293168245e-63
-1.027712887e-62
-3.187821088e-62
-9.822428395e-62
-3.003970926e-61
-9.109781935e-61
-2.736594454e-60
-8.134936574e-60
-2.390648982e-59
-6.939326997e-59
-1.988161158e-58
-5.619642109e-58
-1.566870544e-57
-4.311205033e-57
-1.172128973e-56
-3.157835794e-56
-8.474934179e-56
-2.286202004e-55
-6.284265334e-55
-1.791490618e-54
-5.389141552e-54
-1.726956731e-53
-5.871540341e-53
-2.085010824e-52
-7.580036297e-52
-2.771685008e-51
-1.006302269e-50
-3.597553653e-50
-1.260099841e-49
-4.311945187e-49
-1.43919696e-48
-4.681336575e-48
-1.483254054e-47
-4.576482401e-47
-1.374743914e-46
-4.019635411e-46
-1.143689357e-45
-3.165478788e-45
-8.519259614e-45
-2.228350579e-44
-5.661605794e-44
-1.396342256e-43
-3.340618527e-43
-7.746283944e-43
-1.739360808e-42
-3.777981243e-42
-7.928301772e-42
-1.605257021e-41
-3.130889303e-41
-5.872213226e-41
-1.057230592e-40
-1.823847548e-40
-3.008987308e-40
-4.735695204e-40
-7.086635589e-40
-1.008359111e-39
-1.425241738e-39
-3.021460235e-39
-2.046144949e-38
-2.291570748e-37
-2.483039676e-36
-2.382824045e-35
-1.993106549e-34
-1.455184391e-33
-9.282410585e-33
-5.214759713e-32
-2.625850498e-31
-1.217090372e-30
-5.359595939e-30
-2.302572549e-29
-9.790133922e-29
-4.231283032e-28
-2.041661584e-27
-1.223493095e-26
-8.558051336e-26
-5.972633674e-25
-3.779532022e-24
-2.093414352e-23
-1.005750937e-22
-4.250650145e-22
-1.686697234e-21
-7.28737994e-21
-3.762743161e-20
-2.025553181e-19
-9.362298635e-19
-3.345482714e-18
-8.849960573e-18
-1.775214337e-17
-2.149227679e-81
-1.784586242e-80
-1.01153264e-79
-4.91875936e-79
-2.22591079e-78
-9.714096726e-78
-4.154261843e-77
-1.751644716e-76
-7.29942727e-76
-3.006705736e-75
-1.224037695e-74
-4.921362849e-74
-1.953294811e-73
-7.647883495e-73
-2.952892434e-72
-1.123771178e-71
-4.214583405e-71
-1.557337767e-70
-5.670034898e-70
-2.034190273e-69
-7.193426994e-69
-2.508279143e-68
-8.629113277e-68
-2.930843511e-67
-9.836106383e-67
-3.26476785e-66
-1.072820355e-65
-3.493756276e-65
-1.128742755e-64
-3.620961414e-64
-1.154259148e-63
-3.657996891e-63
-1.152749019e-62
-3.611808428e-62
-1.124694266e-61
-3.478294595e-61
-1.067428855e-60
-3.247225785e-60
-9.781979033e-60
-2.914912598e-59
-8.583922457e-59
-2.495955173e-58
-7.161213951e-58
-2.026533309e-57
-5.656231139e-57
-1.557990824e-56
-4.242129246e-56
-1.145687628e-55
-3.088371455e-55
-8.396410091e-55
-2.33782399e-54
-6.791938489e-54
-2.092911048e-53
-6.881704692e-53
-2.394530734e-52
-8.656346595e-52
-3.18568866e-51
-1.17374804e-50
-4.279846012e-50
-1.533281886e-49
-5.374164472e-49
-1.838464665e-48
-6.13038096e-48
-1.991137437e-47
-6.296876827e-47
-1.938415158e-46
-5.807208822e-46
-1.692685862e-45
-4.798838976e-45
-1.322743541e-44
-3.543128789e-44
-9.217751708e-44
-2.327595946e-43
-5.700508212e-43
-1.35294326e-42
-3.108810299e-42
-6.90845842e-42
-1.482824368e-41
-3.069544834e-41
-6.117455472e-41
-1.171383676e-40
-2.150186459e-40
-3.774448144e-40
-6.320159261e-40
-1.006474176e-39
-1.517448527e-39
-2.149921062e-39
-2.848098841e-39
-3.657782201e-39
-8.082706014e-39
-6.967140211e-38
-8.726599637e-37
-1.005600879e-35
-1.001303285e-34
-8.55029003e-34
-6.348241677e-33
-4.09919638e-32
-2.32953585e-31
-1.194104751e-30
-5.693352377e-30
-2.596866482e-29
-1.152085702e-28
-4.983537406e-28
-2.142058623e-27
-1.015847468e-26
-6.101764021e-26
-4.360790921e-25
-3.101133607e-24
-1.98331865e-23
-1.105031892e-22
-5.327300894e-22
-2.24916639e-21
-8.848751094e-21
-3.787463525e-20
-1.958677597e-19
-1.054893317e-18
-4.820753508e-18
-1.683779246e-17
-4.299622993e-17
-8.185589279e-17
-7.181787213e-81
-5.813169735e-80
-3.236431383e-79
-1.558220819e-78
-7.024500648e-78
-3.065585905e-77
-1.31361713e-76
-5.554840538e-76
-2.322131749e-75
-9.595684369e-75
-3.918529674e-74
-1.580158561e-73
-6.289292567e-73
-2.469055146e-72
-9.557168866e-72
-3.64583834e-71
-1.370449405e-70
-5.075075851e-70
-1.85169095e-69
-6.657068205e-69
-2.359035107e-68
-8.243213474e-68
-2.842104665e-67
-9.675405995e-67
-3.25513644e-66
-1.083306506e-65
-3.570064623e-65
-1.166265573e-64
-3.780609507e-64
-1.217172775e-63
-3.894710828e-63
-1.239124456e-62
-3.92037193e-62
-1.233167428e-61
-3.854625521e-61
-1.196396586e-60
-3.683755756e-60
-1.124005646e-59
-3.394963079e-59
-1.013979951e-58
-2.991785426e-58
-8.713182639e-58
-2.503192909e-57
-7.091400438e-57
-1.981216486e-56
-5.463197556e-56
-1.48991818e-55
-4.035093046e-55
-1.093234216e-54
-2.99869553e-54
-8.469786597e-54
-2.511425626e-53
-7.933187086e-53
-2.675072534e-52
-9.510703195e-52
-3.493304384e-51
-1.299166085e-50
-4.817037625e-50
-1.762479124e-49
-6.323910747e-49
-2.217203681e-48
-7.580883033e-48
-2.525010458e-47
-8.188135635e-47
-2.584280602e-46
-7.936353682e-46
-2.370958658e-45
-6.88846087e-45
-1.945610565e-44
-5.339815465e-44
-1.423289016e-43
-3.681922777e-43
-9.237338646e-43
-2.245639649e-42
-5.284857128e-42
-1.202663116e-41
-2.643051892e-41
-5.600797357e-41
-1.142283002e-40
-2.237215031e-40
-4.196664704e-40
-7.517055135e-40
-1.28140192e-39
-2.071080195e-39
-3.158453205e-39
-4.506337797e-39
-5.917562199e-39
-7.083010355e-39
-7.525271123e-39
-1.717918532e-38
-1.982744753e-37
-2.841559102e-36
-3.557846969e-35
-3.68883788e-34
-3.195540817e-33
-2.426868138e-32
-1.599974215e-31
-9.309455419e-31
-4.947778126e-30
-2.472688579e-29
-1.177737871e-28
-5.371248729e-28
-2.337604006e-27
-9.847998629e-27
-4.510111566e-26
-2.692819706e-25
-1.971942044e-24
-1.434651822e-23
-9.30932574e-23
-5.25277063e-22
-2.563788217e-21
-1.084401468e-20
-4.147585579e-20
-1.671203286e-19
-8.263421027e-19
-4.36111725e-18
-1.95047187e-17
-6.607318702e-17
-1.614389618e-16
-2.873875557e-16
-2.322510372e-80
-1.829553926e-79
-1.000218891e-78
-4.770531509e-78
-2.143711405e-77
-9.359889799e-77
-4.01967173e-76
-1.704812685e-75
-7.149176689e-75
-2.963519631e-74
-1.213850578e-73
-4.909036052e-73
-1.959212892e-72
-7.711418656e-72
-2.992222515e-71
-1.144121185e-70
-4.31022849e-70
-1.599588428e-69
-5.84839334e-69
-2.106892707e-68
-7.481459913e-68
-2.619748507e-67
-9.052080864e-67
-3.088701269e-66
-1.041703126e-65
-3.476007081e-65
-1.148837126e-64
-3.764774415e-64
-1.224521283e-63
-3.956545932e-63
-1.270793192e-62
-4.05881302e-62
-1.289160977e-61
-4.070726591e-61
-1.277139973e-60
-3.977782245e-60
-1.22869073e-59
-3.759792711e-59
-1.138469086e-58
-3.407614728e-58
-1.007243734e-57
-2.937805793e-57
-8.450099267e-57
-2.39626135e-56
-6.701040814e-56
-1.849893241e-55
-5.053886088e-55
-1.373049394e-54
-3.741535679e-54
-1.036615883e-53
-2.974473769e-53
-9.012965738e-53
-2.919418152e-52
-1.008560264e-51