/*--------------------------------*- C++ -*----------------------------------*\
  =========                 |
  \\      /  F ield         | OpenFOAM: The Open Source CFD Toolbox
   \\    /   O peration     | Website:  https://openfoam.org
    \\  /    A nd           | Version:  7
     \\/     M anipulation  |
\*---------------------------------------------------------------------------*/
FoamFile
{
    version     2.0;
    format      ascii;
    class       volScalarField;
    location    "0.361";
    object      Y_HO2;
}
// * * * * * * * * * * * * * * * * * * * * * * * * * * * * * * * * * * * * * //

dimensions      [0 0 0 0 0 0 0];

internalField   nonuniform List<scalar> 
35870
(
1.272610676e-72
1.142429335e-71
7.117885267e-71
3.743839139e-70
1.790380452e-69
8.090334716e-69
3.531680391e-68
1.508016686e-67
6.342203048e-67
2.636329101e-66
1.085102761e-65
4.426018588e-65
1.789957778e-64
7.179160403e-64
2.856424222e-63
1.127672781e-62
4.418587522e-62
1.718910736e-61
6.641163425e-61
2.549259206e-60
9.726705297e-60
3.690478133e-59
1.393020878e-58
5.233244151e-58
1.957450595e-57
7.292085929e-57
2.706155203e-56
1.0005543e-55
3.685627876e-55
1.35239261e-54
4.941976712e-54
1.797805071e-53
6.507721012e-53
2.342851936e-52
8.384173144e-52
2.980735782e-51
1.052219193e-50
3.686351907e-50
1.281169056e-49
4.415419124e-49
1.508544049e-48
5.108074934e-48
1.713916971e-47
5.697715797e-47
1.876543024e-46
6.122813373e-46
1.979172454e-45
6.338352867e-45
2.011264008e-44
6.324152138e-44
1.970680512e-43
6.086480701e-43
1.863419989e-42
5.655998881e-42
1.702243318e-41
5.080500912e-41
1.503907751e-40
4.415913601e-40
1.286343336e-39
3.717743781e-39
1.066189375e-38
3.034341704e-38
8.57056715e-38
2.402739419e-37
6.686371529e-37
1.847104648e-36
5.06569053e-36
1.379300431e-35
3.728869724e-35
1.000960898e-34
2.668090837e-34
7.062338883e-34
1.856439486e-33
4.846368091e-33
1.256532725e-32
3.235720864e-32
8.276107016e-32
2.102602703e-31
5.306196279e-31
1.330221988e-30
3.312822308e-30
8.196408984e-30
2.014740461e-29
4.920437611e-29
1.193981442e-28
2.878869163e-28
6.897625521e-28
1.642310633e-27
3.886117643e-27
9.139264129e-27
2.136358534e-26
4.964114341e-26
1.146716219e-25
2.633690291e-25
6.014822808e-25
1.366136574e-24
3.086399296e-24
6.937195336e-24
1.551638958e-23
3.45456915e-23
7.658361934e-23
1.69118348e-22
3.721902914e-22
8.168024512e-22
1.788788496e-21
3.912812434e-21
8.558436448e-21
1.874541346e-20
4.118417166e-20
9.094586131e-20
2.022948851e-19
4.541890288e-19
1.030740091e-18
2.365096373e-18
5.478992427e-18
1.277390783e-17
2.983590581e-17
6.949868181e-17
1.610658911e-16
3.728256659e-16
2.273089666e-72
2.026947681e-71
1.25488793e-70
6.568626715e-70
3.132343995e-69
1.414085091e-68
6.176419761e-68
2.641561162e-67
1.113473136e-66
4.640671251e-66
1.915495135e-65
7.836002486e-65
3.178504464e-64
1.278700317e-63
5.103298e-63
2.020967151e-62
7.943796422e-62
3.100187662e-61
1.20170154e-60
4.628242739e-60
1.771956564e-59
6.746699546e-59
2.555796394e-58
9.636886378e-58
3.618171628e-57
1.353046906e-56
5.040808062e-56
1.871064659e-55
6.919339736e-55
2.548907223e-54
9.350447838e-54
3.41449913e-53
1.240595646e-52
4.482510662e-52
1.609776551e-51
5.742605223e-51
2.033871177e-50
7.148240386e-50
2.492013759e-49
8.61425929e-49
2.951691362e-48
1.002321079e-47
3.372489974e-47
1.124222628e-46
3.712655392e-46
1.214618379e-45
3.93665375e-45
1.264065888e-44
4.021733037e-44
1.267929886e-43
3.961504962e-43
1.226777088e-42
3.765920509e-42
1.146138259e-41
3.458783435e-41
1.035116462e-40
3.072498572e-40
9.046601887e-40
2.642545245e-39
7.658633271e-39
2.202508066e-38
6.285840723e-38
1.780442241e-37
5.005499929e-37
1.396869924e-36
3.869752855e-36
1.064284225e-35
2.906066144e-35
7.878642145e-35
2.120890427e-34
5.669277002e-34
1.504874152e-33
3.966936822e-33
1.03851256e-32
2.700149492e-32
6.972704951e-32
1.788422049e-31
4.556298783e-31
1.153046605e-30
2.89863847e-30
7.238890354e-30
1.795968925e-29
4.426832397e-29
1.084111682e-28
2.637922267e-28
6.377913107e-28
1.532311752e-27
3.658413972e-27
8.680473571e-27
2.047054831e-26
4.798274923e-26
1.118018371e-25
2.589789362e-25
5.964608858e-25
1.366025715e-24
3.111446982e-24
7.049688633e-24
1.589182851e-23
3.565175397e-23
7.961969969e-23
1.770692888e-22
3.923152374e-22
8.663933157e-22
1.908358024e-21
4.195661919e-21
9.216470218e-21
2.025206723e-20
4.458416847e-20
9.851038595e-20
2.189357435e-19
4.905206094e-19
1.110295129e-18
2.542355602e-18
5.88965698e-18
1.377741815e-17
3.242243156e-17
7.635542076e-17
1.790194127e-16
4.166013826e-16
9.654899608e-16
5.767948356e-72
5.09562139e-71
3.127617e-70
1.626672817e-69
7.728741675e-69
3.485213094e-68
1.523601447e-67
6.530571205e-67
2.761086621e-66
1.154721796e-65
4.783833184e-65
1.964419992e-64
7.999049198e-64
3.23055686e-63
1.294414649e-62
5.146496493e-62
2.031117371e-61
7.959299186e-61
3.098113005e-60
1.198310527e-59
4.607885529e-59
1.762294467e-58
6.706527459e-58
2.540598827e-57
9.584232607e-57
3.601498249e-56
1.348333911e-55
5.029507184e-55
1.869133726e-54
6.919173335e-54
2.550523662e-53
9.357947725e-53
3.415790554e-52
1.239748916e-51
4.471654338e-51
1.601910926e-50
5.696622323e-50
2.010010498e-49
7.033958012e-49
2.440436796e-48
8.392221369e-48
2.859771816e-47
9.655217849e-47
3.229422646e-46
1.070035784e-45
3.512204285e-45
1.142045011e-44
3.679042109e-44
1.174328594e-43
3.714308945e-43
1.164265074e-42
3.617185466e-42
1.114026459e-41
3.401630599e-41
1.029926586e-40
3.092516065e-40
9.210033986e-40
2.720873676e-39
7.974522577e-39
2.318986378e-38
6.691656115e-38
1.916250847e-37
5.446187822e-37
1.536349244e-36
4.302067832e-36
1.195868998e-35
3.300172763e-35
9.041950844e-35
2.459710169e-34
6.64392135e-34
1.781988559e-33
4.746191703e-33
1.255349786e-32
3.297477252e-32
8.602296494e-32
2.228846617e-31
5.735837163e-31
1.466163637e-30
3.72268471e-30
9.389413135e-30
2.35259398e-29
5.855983164e-29
1.448156661e-28
3.558062016e-28
8.685889586e-28
2.10688021e-27
5.078247525e-27
1.216360067e-26
2.895430018e-26
6.850118782e-26
1.610840013e-25
3.765441478e-25
8.750517032e-25
2.021893964e-24
4.645682828e-24
1.061641366e-23
2.413371732e-23
5.458662191e-23
1.228785143e-22
2.753789745e-22
6.146237782e-22
1.366816125e-21
3.03015201e-21
6.701450254e-21
1.479703663e-20
3.265443714e-20
7.211444002e-20
1.596367864e-19
3.549027635e-19
7.942629999e-19
1.793569026e-18
4.095835612e-18
9.470435038e-18
2.2168263e-17
5.240368788e-17
1.245522219e-16
2.958461482e-16
6.981343717e-16
1.630629547e-15
3.779990719e-15
1.649892113e-71
1.44255418e-70
8.773017895e-70
4.53282027e-69
2.145955354e-68
9.668034541e-68
4.231043816e-67
1.817814853e-66
7.709555873e-66
3.235518206e-65
1.345391069e-64
5.545643217e-64
2.266878054e-63
9.190836801e-63
3.697081558e-62
1.47577687e-61
5.847803649e-61
2.300949864e-60
8.99370032e-60
3.493487755e-59
1.349219295e-58
5.183140827e-58
1.981486225e-57
7.541377617e-57
2.858461954e-56
1.07931909e-55
4.060483121e-55
1.522048851e-54
5.684115687e-54
2.114356837e-53
7.831127765e-53
2.88671501e-52
1.058502776e-51
3.858826792e-51
1.397811859e-50
5.02822357e-50
1.795263035e-49
6.358949802e-49
2.233622954e-48
7.777725989e-48
2.684077079e-47
9.177967331e-47
3.109170166e-46
1.043399488e-45
3.46855855e-45
1.142200428e-44
3.726052519e-44
1.204216345e-43
3.856151148e-43
1.223592927e-42
3.847778087e-42
1.19931522e-41
3.7056857e-41
1.135213243e-40
3.448425349e-40
1.038861956e-39
3.104168264e-39
9.201040025e-39
2.705724122e-38
7.894639841e-38
2.285742271e-37
6.5676336e-37
1.872900095e-36
5.301260608e-36
1.489478929e-35
4.154403201e-35
1.150347322e-34
3.162426488e-34
8.631899126e-34
2.339422392e-33
6.295757286e-33
1.682457179e-32
4.464939857e-32
1.176741144e-31
3.080049714e-31
8.006881842e-31
2.067357393e-30
5.301908561e-30
1.350618671e-29
3.417726417e-29
8.591392218e-29
2.145503905e-28
5.322959495e-28
1.312062501e-27
3.213321281e-27
7.819413513e-27
1.890769783e-26
4.543324068e-26
1.084946212e-25
2.574982013e-25
6.074458976e-25
1.424456767e-24
3.320821657e-24
7.697513103e-24
1.774293112e-23
4.067648722e-23
9.276591488e-23
2.105046956e-22
4.75422707e-22
1.069021799e-21
2.3941268e-21
5.342819891e-21
1.18877393e-20
2.639049327e-20
5.850404106e-20
1.296596867e-19
2.876665276e-19
6.400425163e-19
1.43103735e-18
3.223292659e-18
7.332044802e-18
1.688252776e-17
3.939341759e-17
9.311155978e-17
2.222636645e-16
5.331127553e-16
1.276027276e-15
3.027671242e-15
7.089747292e-15
1.641829227e-14
4.961284835e-71
4.288621887e-70
2.582836278e-69
1.32553662e-68
6.253768916e-68
2.815484558e-67
1.233726124e-66
5.313790396e-66
2.260825122e-65
9.521599078e-65
3.973918611e-64
1.644218109e-63
6.746781773e-63
2.745991752e-62
1.108916581e-61
4.443973751e-61
1.767999179e-60
6.984908576e-60
2.741512431e-59
1.069427744e-58
4.148175936e-58
1.600636158e-57
6.146960893e-57
2.350344471e-56
8.950814347e-56
3.395928551e-55
1.283762315e-54
4.835489031e-54
1.814568209e-53
6.782139902e-53
2.523816551e-52
9.346264131e-52
3.442508156e-51
1.26046311e-50
4.585147013e-50
1.656098774e-49
5.936177453e-49
2.110643676e-48
7.441124955e-48
2.600366378e-47
9.005132477e-47
3.089733154e-46
1.050196217e-45
3.535948721e-45
1.179281007e-44
3.895938808e-44
1.275009385e-43
4.133912701e-43
1.328004941e-42
4.227396498e-42
1.333645686e-41
4.170265794e-41
1.292722698e-40
3.973083002e-40
1.210853578e-39
3.659791942e-39
1.097181288e-38
3.262954027e-38
9.627290829e-38
2.818410915e-37
8.187563982e-37
2.360451197e-36
6.754009748e-36
1.918177896e-35
5.407632748e-35
1.51336762e-34
4.204622145e-34
1.159789657e-33
3.176318218e-33
8.637393486e-33
2.332252562e-32
6.253482179e-32
1.665099706e-31
4.402997849e-31
1.156282929e-30
3.015813135e-30
7.812442354e-30
2.010153941e-29
5.137494e-29
1.304286073e-28
3.289359105e-28
8.241082631e-28
2.051211037e-27
5.072347066e-27
1.246237949e-26
3.042346138e-26
7.379996015e-26
1.778974899e-25
4.261660138e-25
1.014648219e-24
2.401133068e-24
5.648360631e-24
1.320934025e-23
3.071477291e-23
7.102047049e-23
1.63329486e-22
3.736595856e-22
8.505942083e-22
1.927183338e-21
4.347369758e-21
9.767960094e-21
2.187118947e-20
4.882972547e-20
1.087850831e-19
2.420560614e-19
5.385720059e-19
1.199969479e-18
2.68235639e-18
6.028703861e-18
1.365996395e-17
3.128353011e-17
7.258955057e-17
1.708305036e-16
4.074705989e-16
9.815353853e-16
2.374101894e-15
5.721449759e-15
1.36371379e-14
3.19801435e-14
7.389157721e-14
1.52742701e-70
1.303922184e-69
7.772279421e-69
3.961582082e-68
1.86286612e-67
8.38283114e-67
3.678781973e-66
1.588674748e-65
6.781305486e-65
2.866147353e-64
1.200644331e-63
4.986422927e-63
2.05391244e-62
8.39178192e-62
3.402081961e-61
1.368745031e-60
5.467233508e-60
2.168736325e-59
8.547324642e-59
3.348347235e-58
1.304417514e-57
5.055629019e-57
1.950341446e-56
7.491870526e-56
2.866594893e-55
1.092785001e-54
4.150978649e-54
1.571086045e-53
5.924032131e-53
2.224703796e-52
8.317429565e-52
3.094205636e-51
1.144756287e-50
4.209570833e-50
1.537685969e-49
5.576290054e-49
2.00655903e-48
7.161285927e-48
2.533937235e-47
8.886458561e-47
3.088041362e-46
1.063116246e-45
3.625525054e-45
1.224691498e-44
4.097733166e-44
1.358107647e-43
4.458871174e-43
1.450313651e-42
4.673976254e-42
1.492616762e-41
4.723991005e-41
1.481943431e-40
4.608709806e-40
1.421068289e-39
4.345098264e-39
1.317626168e-38
3.963226016e-38
1.182557446e-37
3.500755038e-37
1.028283732e-36
2.997217245e-36
8.669946061e-36
2.48910343e-35
7.09302772e-35
2.006372546e-34
5.633913313e-34
1.570554877e-33
4.346746064e-33
1.194444229e-32
3.258958811e-32
8.829235406e-32
2.37529463e-31
6.34571074e-31
1.683561972e-30
4.435895376e-30
1.160790711e-29
3.016923307e-29
7.788077444e-29
1.996969369e-28
5.086362977e-28
1.286930805e-27
3.234688232e-27
8.077138754e-27
2.003779655e-26
4.938903711e-26
1.209543761e-25
2.943386456e-25
7.117607241e-25
1.71045225e-24
4.085173908e-24
9.697712116e-24
2.288383176e-23
5.368293629e-23
1.252123474e-22
2.904186608e-22
6.699523786e-22
1.537418424e-21
3.510547947e-21
7.978365736e-21
1.805348815e-20
4.069032653e-20
9.139622052e-20
2.047068273e-19
4.57558617e-19
1.021588482e-18
2.281217497e-18
5.102326605e-18
1.145387919e-17
2.586520733e-17
5.892366494e-17
1.357851926e-16
3.173221747e-16
7.527142404e-16
1.810653716e-15
4.398418001e-15
1.072056676e-14
2.599182883e-14
6.217603874e-14
1.458631972e-13
3.358357309e-13
4.751278937e-70
4.001045824e-69
2.35911954e-68
1.194164628e-67
5.597853698e-67
2.518490025e-66
1.107115158e-65
4.794324693e-65
2.053292527e-64
8.709431487e-64
3.66196061e-63
1.526580354e-62
6.311940515e-62
2.588807006e-61
1.053604925e-60
4.255544334e-60
1.706525647e-59
6.796884768e-59
2.689928455e-58
1.058230391e-57
4.140426565e-57
1.61185262e-56
6.246354062e-56
2.410527613e-55
9.266784168e-55
3.549471924e-54
1.35475459e-53
5.152197394e-53
1.952002326e-52
7.365118421e-52
2.766327527e-51
1.033767467e-50
3.841421383e-50
1.418616012e-49
5.203299094e-49
1.894433943e-48
6.843078674e-48
2.451334978e-47
8.705051441e-47
3.063554283e-46
1.068230693e-45
3.689924803e-45
1.262519473e-44
4.278638377e-44
1.436221215e-43
4.775312608e-43
1.572813449e-42
5.132168072e-42
1.659236634e-41
5.315654042e-41
1.687755418e-40
5.311663911e-40
1.657234346e-39
5.12663629e-39
1.572669914e-38
4.784733782e-38
1.443938558e-37
4.322773737e-37
1.283948728e-36
3.783982368e-36
1.106644575e-35
3.211906682e-35
9.252269381e-35
2.645430863e-34
7.50820078e-34
2.115405664e-33
5.916907223e-33
1.643093938e-32
4.530209646e-32
1.240174978e-31
3.371132638e-31
9.099458137e-31
2.439045957e-30
6.492420095e-30
1.716297303e-29
4.506035766e-29
1.174978967e-28
3.043103484e-28
7.828419158e-28
2.00042053e-27
5.077795932e-27
1.28042227e-26
3.207551634e-26
7.982812008e-26
1.973880111e-25
4.849426849e-25
1.183828997e-24
2.87172372e-24
6.922779322e-24
1.658573527e-23
3.94949607e-23
9.348516721e-23
2.199809023e-22
5.146637376e-22
1.197350896e-21
2.770474599e-21
6.376884386e-21
1.460464373e-20
3.329076029e-20
7.555451395e-20
1.707961652e-19
3.847737981e-19
8.643877061e-19
1.937945604e-18
4.340334939e-18
9.72354256e-18
2.182356273e-17
4.917534408e-17
1.115170476e-16
2.552787929e-16
5.915701024e-16
1.391432037e-15
3.324592581e-15
8.059730485e-15
1.972992197e-14
4.842322045e-14
1.18013426e-13
2.830669464e-13
6.635959925e-13
1.52050327e-12
1.481037162e-69
1.228826569e-68
7.163440964e-68
3.600994657e-67
1.683155026e-66
7.573059589e-66
3.335437074e-65
1.44858556e-64
6.224957411e-64
2.649942407e-63
1.11832085e-62
4.679489312e-62
1.942160513e-61
7.996121786e-61
3.266784627e-60
1.324615523e-59
5.333130457e-59
2.132745451e-58
8.475480988e-58
3.348387325e-57
1.315756099e-56
5.144865066e-56
2.002798561e-55
7.764686343e-55
2.998992181e-54
1.154164951e-53
4.426239416e-53
1.691357651e-52
6.438388992e-52
2.44063219e-51
9.208995119e-51
3.456753459e-50
1.290085856e-49
4.784291251e-49
1.761942169e-48
6.440098701e-48
2.335117416e-47
8.395607097e-47
2.992033932e-46
1.05663699e-45
3.696884383e-45
1.28123983e-44
4.398153633e-44
1.495341037e-43
5.035551556e-43
1.679618031e-42
5.549738831e-42
1.816654535e-41
5.891928065e-41
1.893604783e-40
6.031589601e-40
1.904361055e-39
5.960824954e-39
1.849976514e-38
5.693640088e-38
1.737945173e-37
5.262104597e-37
1.580562445e-36
4.710210909e-36
1.392802562e-35
4.086954209e-35
1.190168133e-34
3.439926447e-34
9.868551937e-34
2.81027663e-33
7.944424228e-33
2.229553322e-32
6.21209436e-32
1.718478935e-31
4.720156809e-31
1.28734151e-30
3.48637856e-30
9.375974403e-30
2.50401297e-29
6.641282137e-29
1.749360308e-28
4.576522248e-28
1.189155248e-27
3.06907681e-27
7.867952482e-27
2.003627809e-26
5.068633652e-26
1.273801081e-25
3.180302294e-25
7.888818191e-25
1.944259311e-24
4.761228654e-24
1.158596954e-23
2.801708226e-23
6.733213962e-23
1.608298782e-22
3.818533495e-22
9.012777346e-22
2.114983708e-21
4.93519131e-21
1.145313151e-20
2.643953213e-20
6.072928878e-20
1.388287087e-19
3.159734779e-19
7.162917103e-19
1.618184584e-18
3.645314495e-18
8.195452015e-18
1.840655081e-17
4.135475994e-17
9.309817085e-17
2.104681114e-16
4.790356617e-16
1.101208874e-15
2.564452943e-15
6.066599448e-15
1.458968547e-14
3.561888708e-14
8.780159315e-14
2.168242691e-13
5.307488167e-13
1.275323552e-12
2.984319917e-12
6.795983623e-12
4.598602083e-69
3.754802067e-68
2.16303953e-67
1.079869405e-66
5.03425976e-66
2.265873484e-65
1.000072776e-64
4.356384571e-64
1.878472482e-63
8.025434297e-63
3.399375549e-62
1.427740169e-61
5.947983526e-61
2.458168842e-60
1.008132384e-59
4.103700284e-59
1.658774003e-58
6.660289505e-58
2.657689532e-57
1.054389199e-56
4.161113214e-56
1.634257688e-55
6.390563664e-55
2.488967283e-54
9.658186171e-54
3.734516222e-53
1.438988436e-52
5.524712052e-52
2.112933182e-51
8.046645493e-51
3.04991237e-50
1.1498881e-49
4.309833476e-49
1.604951681e-48
5.934305086e-48
2.177442383e-47
7.924725937e-47
2.859556827e-46
1.022679271e-45
3.62398361e-45
1.272187505e-44
4.42357951e-44
1.523424595e-43
5.196160255e-43
1.7553798e-42
5.873669746e-42
1.946919367e-41
6.393202852e-41
2.080068522e-40
6.706390157e-40
2.142973504e-39
6.787766372e-39
2.131493566e-38
6.636690277e-38
2.049228981e-37
6.275650672e-37
1.906386079e-36
5.74509851e-36
1.717772076e-35
5.096337044e-35
1.500426952e-34
4.384018592e-34
1.271345745e-33
3.659475265e-33
1.045599102e-32
2.965709039e-32
8.350886794e-32
2.334530179e-31
6.479626974e-31
1.785680614e-30
4.886293755e-30
1.327685964e-29
3.582354717e-29
9.598783813e-29
2.554200308e-28
6.749964294e-28
1.771628289e-27
4.61833979e-27
1.195806228e-26
3.075496491e-26
7.85715876e-26
1.9940164e-25
5.027163761e-25
1.259121063e-24
3.133159848e-24
7.746220449e-24
1.902886768e-23
4.644909303e-23
1.126706706e-22
2.716095192e-22
6.507506352e-22
1.549742655e-21
3.668811019e-21
8.635047524e-21
2.020871256e-20
4.703488369e-20
1.088913175e-19
2.508198088e-19
5.749707396e-19
1.31219014e-18
2.982575651e-18
6.755545901e-18
1.525721463e-17
3.438766279e-17
7.742518946e-17
1.743905765e-16
3.936041442e-16
8.922803935e-16
2.037085949e-15
4.699410146e-15
1.098944529e-14
2.612597465e-14
6.31885793e-14
1.552274581e-13
3.849975583e-13
9.558697848e-13
2.348147833e-12
5.647182546e-12
1.317558406e-11
2.977773346e-11
1.415393204e-68
1.135883654e-67
6.463525628e-67
3.205020858e-66
1.490712701e-65
6.713884436e-65
2.970054188e-64
1.297780041e-63
5.615352897e-63
2.407698672e-62
1.023585253e-61
4.315001333e-61
1.804359776e-60
7.48516179e-60
3.081499673e-59
1.259211231e-58
5.109957536e-58
2.059975967e-57
8.253716647e-57
3.288234042e-56
1.303260493e-55
5.140975058e-55
2.019339934e-54
7.900809464e-54
3.080064663e-53
1.196546487e-52
4.632235206e-52
1.786793028e-51
6.865334898e-51
2.626454759e-50
9.999508312e-50
3.786443703e-49
1.42520606e-48
5.328941919e-48
1.978122477e-47
7.285844674e-47
2.661426104e-46
9.637783812e-46
3.458782117e-45
1.229810838e-44
4.331524526e-44
1.511040725e-43
5.220555096e-43
1.786312814e-42
6.053642491e-42
2.032020542e-41
6.756584838e-41
2.225662852e-40
7.264162905e-40
2.349467928e-39
7.531420171e-39
2.39317028e-38
7.539195587e-38
2.355019316e-37
7.295293854e-37
2.241441515e-36
6.831281616e-36
2.065461247e-35
6.196094927e-35
1.844367346e-34
5.448082971e-34
1.59714082e-33
4.647053766e-33
1.342073148e-32
3.847385229e-32
1.094891845e-31
3.093256994e-31
8.676041667e-31
2.416063968e-30
6.680295447e-30
1.834010303e-29
4.99970575e-29
1.353445849e-28
3.638378293e-28
9.713190799e-28
2.575251005e-27
6.781057638e-27
1.773425498e-26
4.606652775e-26
1.1885901e-25
3.046274537e-25
7.755560272e-25
1.961474054e-24
4.928287299e-24
1.230194236e-23
3.05096204e-23
7.518106014e-23
1.840828777e-22
4.478979645e-22
1.08301812e-21
2.602659171e-21
6.216736029e-21
1.476097027e-20
3.484382206e-20
8.178129019e-20
1.908841579e-19
4.43154514e-19
1.023552843e-18
2.35262094e-18
5.383049915e-18
1.226628794e-17
2.78505571e-17
6.304651519e-17
1.424171738e-16
3.213533458e-16
7.253425731e-16
1.640590686e-15
3.727344298e-15
8.530105831e-15
1.973323163e-14
4.629970559e-14
1.105178439e-13
2.685738764e-13
6.632760352e-13
1.653762015e-12
4.124733219e-12
1.015999987e-11
2.443327267e-11
5.677310008e-11
1.271565567e-10
4.299873905e-68
3.387270947e-67
1.903180656e-66
9.375095073e-66
4.352003969e-65
1.961897366e-64
8.700289594e-64
3.813670172e-63
1.655848353e-62
7.125244741e-62
3.040182595e-61
1.286320161e-60
5.398803004e-60
2.24800352e-59
9.289629798e-59
3.810654781e-58
1.552429276e-57
6.28322889e-57
2.527748848e-56
1.011233264e-55
4.025013283e-55
1.594674546e-54
6.291692212e-54
2.472843395e-53
9.68455375e-53
3.779732204e-52
1.470070821e-51
5.696771914e-51
2.198877471e-50
8.450064929e-50
3.231285885e-49
1.228802577e-48
4.644409575e-48
1.743530683e-47
6.497100476e-47
2.401975769e-46
8.805897268e-46
3.200073488e-45
1.152360657e-44
4.111032632e-44
1.452686381e-43
5.083966282e-43
1.762060785e-42
6.048198111e-42
2.056097433e-41
6.923292204e-41
2.309205183e-40
7.630414062e-40
2.498229951e-39
8.10551046e-39
2.606505231e-38
8.308711212e-38
2.625857473e-37
8.228759656e-37
2.557312717e-36
7.882726449e-36
2.410268317e-35
7.311386968e-35
2.200517354e-34
6.571761199e-34
1.947640272e-33
5.728496014e-33
1.672276526e-32
4.845514212e-32
1.393677716e-31
3.979237805e-31
1.127911652e-30
3.174015498e-30
8.867918324e-30
2.459981925e-29
6.775757397e-29
1.853177128e-28
5.032990788e-28
1.357381827e-27
3.635473835e-27
9.669843202e-27
2.554428518e-26
6.701950708e-26
1.746469482e-25
4.520530406e-25
1.162257866e-24
2.96836342e-24
7.530971117e-24
1.898115983e-23
4.752828633e-23
1.182387822e-22
2.92259486e-22
7.177979152e-22
1.751810954e-21
4.248668223e-21
1.024074956e-20
2.453357482e-20
5.842275869e-20
1.383070063e-19
3.255393462e-19
7.619512069e-19
1.773753667e-18
4.10769298e-18
9.465717249e-18
2.17121433e-17
4.959227709e-17
1.128520823e-16
2.560093303e-16
5.794512425e-16
1.309903791e-15
2.961760908e-15
6.709985528e-15
1.526964734e-14
3.500529604e-14
8.114063338e-14
1.908403652e-13
4.569289687e-13
1.11454438e-12
2.764331884e-12
6.922194986e-12
1.732844994e-11
4.27633646e-11
1.027392257e-10
2.374695481e-10
5.262713821e-10
1.284140728e-67
9.916733486e-67
5.4999478e-66
2.692159562e-65
1.247757412e-64
5.631817491e-64
2.504008775e-63
1.101132652e-62
4.797508006e-62
2.071747574e-61
8.871505055e-61
3.767222812e-60
1.586927464e-59
6.632237866e-59
2.750957546e-58
1.132746638e-57
4.632565008e-57
1.882359184e-56
7.603278127e-56
3.054264056e-55
1.220825495e-54
4.857714088e-54
1.925044398e-53
7.600066867e-53
2.990016931e-52
1.172311526e-51
4.580471907e-51
1.783114325e-50
6.913621267e-50
2.668600017e-49
1.024877607e-48
3.913788865e-48
1.4853019e-47
5.597787148e-47
2.093882741e-46
7.769504034e-46
2.858511949e-45
1.042372668e-44
3.766248356e-44
1.348018359e-43
4.778747143e-43
1.6777253e-42
5.833092118e-42
2.008403883e-41
6.848900768e-41
2.313266826e-40
7.739485124e-40
2.565304209e-39
8.424993298e-39
2.742017035e-38
8.84520936e-38
2.828463284e-37
8.967330967e-37
2.819092113e-36
8.789190082e-36
2.717930278e-35
8.337388994e-35
2.537303441e-34
7.661427341e-34
2.295526682e-33
6.825391419e-33
2.014091587e-32
5.898848914e-32
1.714824821e-31
4.948372892e-31
1.417486698e-30
4.030988412e-30
1.13804845e-29
3.189966439e-29
8.877817377e-29
2.453233306e-28
6.731335765e-28
1.834045777e-27
4.962288282e-27
1.333315594e-26
3.557781233e-26
9.428382237e-26
2.481554512e-25
6.487209956e-25
1.684438712e-24
4.344418074e-24
1.11302208e-23
2.832626699e-23
7.161541086e-23
1.798765589e-22
4.488629597e-22
1.112873744e-21
2.741537093e-21
6.710949853e-21
1.632462745e-20
3.946420399e-20
9.481978812e-20
2.264487959e-19
5.376039346e-19
1.268905921e-18
2.97806509e-18
6.95105154e-18
1.613871552e-17
3.728174256e-17
8.571716022e-17
1.962209037e-16
4.474475726e-16
1.016992606e-15
2.30583662e-15
5.22056223e-15
1.181977737e-14
2.680940664e-14
6.107249327e-14
1.401482239e-13
3.252207504e-13
7.660004877e-13
1.837596595e-12
4.493849102e-12
1.118058107e-11
2.808994708e-11
7.051194577e-11
1.74178611e-10
4.176725068e-10
9.590844996e-10
2.099867445e-09
3.755153717e-67
2.838914606e-66
1.553825996e-65
7.560266389e-65
3.499917275e-64
1.58207049e-63
7.053340976e-63
3.11175453e-62
1.360411015e-61
5.89543417e-61
2.533465979e-60
1.079672296e-59
4.564492399e-59
1.914597251e-58
7.970795207e-58
3.294408141e-57
1.352451617e-56
5.516865042e-56
2.237265946e-55
9.023839055e-55
3.622000523e-54
1.447368253e-53
5.760741964e-53
2.284432417e-52
9.027788382e-52
3.555577591e-51
1.395520784e-50
5.456958109e-50
2.125183133e-49
8.238671e-49
3.177472132e-48
1.218434645e-47
4.642356117e-47
1.75632279e-46
6.59403866e-46
2.45556367e-45
9.065844939e-45
3.317099976e-44
1.202470834e-43
4.317777804e-43
1.535508495e-42
5.407707147e-42
1.88595232e-41
6.51357921e-41
2.227983439e-40
7.548075185e-40
2.533057705e-39
8.421671799e-39
2.774346867e-38
9.057318068e-38
2.930779797e-37
9.401106341e-37
2.989873367e-36
9.42904385e-36
2.949057298e-35
9.148611242e-35
2.815368316e-34
8.595492962e-34
2.603786447e-33
7.82669728e-33
2.334675836e-32
6.911661433e-32
2.030838547e-31
5.922877504e-31
1.71466633e-30
4.927642376e-30
1.405830637e-29
3.981817159e-29
1.119704069e-28
3.12620234e-28
8.666432254e-28
2.385558205e-27
6.520526375e-27
1.76984191e-26
4.770474358e-26
1.276967789e-25
3.394734392e-25
8.963053038e-25
2.35043764e-24
6.122082679e-24
1.583883758e-23
4.070404323e-23
1.039104636e-22
2.635155845e-22
6.638920862e-22
1.661699161e-21
4.132302347e-21
1.02103066e-20
2.506783739e-20
6.115793213e-20
1.482777776e-19
3.572887759e-19
8.556972127e-19
2.037141194e-18
4.821387136e-18
1.134570238e-17
2.655021265e-17
6.179679654e-17
1.430951753e-16
3.297401352e-16
7.564131071e-16
1.72817929e-15
3.934684653e-15
8.934412073e-15
2.025306061e-14
4.589864428e-14
1.041782896e-13
2.374244368e-13
5.449786406e-13
1.264903429e-12
2.980278645e-12
7.154586873e-12
1.751837281e-11
4.36674949e-11
1.09941637e-10
2.764538759e-10
6.829591231e-10
1.633046847e-09
3.72094658e-09
8.034808079e-09
1.07089272e-66
7.914610038e-66
4.274463307e-65
2.068181469e-64
9.567150514e-64
4.332206375e-63
1.936865665e-62
8.572730367e-62
3.760587049e-61
1.635321333e-60
7.052039884e-60
3.015911446e-59
1.279549451e-58
5.38639559e-58
2.250591021e-57
9.336283759e-57
3.847233673e-56
1.575375247e-55
6.413733927e-55
2.59733274e-54
1.046812713e-53
4.200733021e-53
1.67913994e-52
6.687754422e-52
2.654595302e-51
1.050152921e-50
4.140009935e-50
1.626009032e-49
6.359864372e-49
2.476001697e-48
9.588939764e-48
3.691781667e-47
1.412064835e-46
5.362260957e-46
2.020545455e-45
7.55076411e-45
2.797203344e-44
1.02685543e-43
3.734436529e-43
1.345183126e-42
4.798666525e-42
1.69516089e-41
5.929871387e-41
2.054204793e-40
7.047562193e-40
2.394777813e-39
8.060798792e-39
2.688062531e-38
8.882097582e-38
2.908539223e-37
9.440315641e-37
3.037512897e-36
9.690264028e-36
3.065502322e-35
9.617792582e-35
2.993035945e-34
9.239790508e-34
2.829909585e-33
8.599750459e-33
2.593228371e-32
7.760195666e-32
2.304695706e-31
6.793477117e-31
1.987627151e-30
5.772534032e-30
1.664215232e-29
4.763048334e-29
1.353358355e-28
3.81778747e-28
1.069300481e-27
2.973679422e-27
8.211295075e-27
2.25148298e-26
6.130292869e-26
1.657544756e-25
4.450785403e-25
1.186892656e-24
3.143447956e-24
8.268727336e-24
2.160346892e-23
5.606303898e-23
1.445154842e-22
3.700443517e-22
9.412656757e-22
2.378526832e-21
5.971180176e-21
1.48932277e-20
3.690755041e-20
9.087878438e-20
2.223594917e-19
5.40657543e-19
1.306449742e-18
3.137629812e-18
7.490117776e-18
1.777457269e-17
4.193598645e-17
9.838179901e-17
2.295406757e-16
5.327375059e-16
1.230246123e-15
2.827727665e-15
6.471992489e-15
1.475802207e-14
3.355317926e-14
7.613298173e-14
1.726406688e-13
3.919393119e-13
8.930925167e-13
2.048944324e-12
4.752000069e-12
1.118710559e-11
2.683853879e-11
6.570387337e-11
1.638421031e-10
4.12847236e-10
1.038748851e-09
2.563946377e-09
6.107677115e-09
1.379244973e-08
2.932361999e-08
2.96566342e-66
2.139641806e-65
1.140214273e-64
5.488818253e-64
2.538222962e-63
1.151624677e-62
5.163553161e-62
2.29282063e-61
1.009145605e-60
4.403263813e-60
1.905316767e-59
8.176497135e-59
3.481065468e-58
1.47054797e-57
6.16623869e-57
2.56725738e-56
1.061802121e-55
4.364292328e-55
1.783658868e-54
7.251714686e-54
2.934503536e-53
1.182452673e-52
4.74650339e-52
1.898562642e-51
7.568674769e-51
3.007180215e-50
1.190662848e-49
4.696493694e-49
1.844724978e-48
7.211590645e-48
2.80413655e-47
1.083835532e-46
4.161210843e-46
1.585978141e-45
5.997215595e-45
2.248819846e-44
8.35845582e-44
3.078297853e-43
1.123033198e-42
4.0577742e-42
1.451925827e-41
5.144415099e-41
1.804929894e-40
6.271074482e-40
2.157824649e-39
7.353958758e-39
2.482648672e-38
8.303521705e-38
2.751885102e-37
9.038336625e-37
2.942432771e-36
9.496256836e-36
3.038729002e-35
9.642451229e-35
3.034572368e-34
9.472758819e-34
2.933421747e-33
9.012334051e-33
2.747302857e-32
8.31036811e-32
2.494668824e-31
7.432168948e-31
2.197638545e-30
6.450019319e-30
1.87911666e-29
5.434462069e-29
1.560235378e-28
4.447068893e-28
1.258421821e-27
3.535614818e-27
9.862954556e-27
2.731926756e-26
7.513930922e-26
2.052189029e-25
5.565899199e-25
1.499121518e-24
4.009938914e-24
1.065257488e-23
2.810631413e-23
7.36547229e-23
1.917169335e-22
4.956779232e-22
1.273018216e-21
3.247749784e-21
8.231162941e-21
2.072472326e-20
5.1842338e-20
1.288453836e-19
3.181731524e-19
7.80713761e-19
1.903616322e-18
4.612690595e-18
1.110831965e-17
2.65887123e-17
6.326194137e-17
1.496346523e-16
3.519031222e-16
8.229702962e-16
1.914247492e-15
4.429652825e-15
1.020065453e-14
2.338538395e-14
5.339941387e-14
1.215364865e-13
2.759631496e-13
6.259491249e-13
1.420768587e-12
3.235023009e-12
7.412377866e-12
1.716085164e-11
4.031617047e-11
9.651684706e-11
2.358513277e-10
5.874034901e-10
1.47912092e-09
3.719211144e-09
9.163472914e-09
2.17274168e-08
4.857794463e-08
1.015407115e-07
7.938957645e-66
5.58324503e-65
2.936128281e-64
1.407008335e-63
6.507055557e-63
2.95869873e-62
1.330446377e-61
5.926562227e-61
2.616988972e-60
1.145675563e-59
4.973907797e-59
2.141696927e-58
9.148972943e-58
3.878192148e-57
1.631834699e-56
6.818063778e-56
2.830078186e-55
1.167528179e-54
4.78960246e-54
1.954805397e-53
7.941665927e-53
3.213027458e-52
1.295064761e-51
5.20184574e-51
2.082496082e-50
8.309257507e-50
3.303871648e-49
1.308643066e-48
5.161450791e-48
2.025899834e-47
7.908307432e-47
3.068186206e-46
1.182290881e-45
4.522077256e-45
1.715837096e-44
6.455348658e-44
2.407062857e-43
8.89265911e-43
3.254184475e-42
1.179344751e-41
4.232343266e-41
1.50397785e-40
5.292061644e-40
1.843995956e-39