/*--------------------------------*- C++ -*----------------------------------*\
  =========                 |
  \\      /  F ield         | OpenFOAM: The Open Source CFD Toolbox
   \\    /   O peration     | Website:  https://openfoam.org
    \\  /    A nd           | Version:  7
     \\/     M anipulation  |
\*---------------------------------------------------------------------------*/
FoamFile
{
    version     2.0;
    format      ascii;
    class       volScalarField;
    location    "0.361";
    object      Y_O;
}
// * * * * * * * * * * * * * * * * * * * * * * * * * * * * * * * * * * * * * //

dimensions      [0 0 0 0 0 0 0];

internalField   nonuniform List<scalar> 
35870
(
3.745428431e-66
2.838901121e-65
1.622527241e-64
8.274193851e-64
3.99667381e-63
1.876671788e-62
8.665708763e-62
3.953730483e-61
1.785726611e-60
7.988622338e-60
3.540326559e-59
1.55410471e-58
6.756530553e-58
2.908516086e-57
1.239443276e-56
5.227135443e-56
2.180968778e-55
8.999826897e-55
3.672295279e-54
1.481153299e-53
5.902585844e-53
2.323534288e-52
9.032464415e-52
3.466553531e-51
1.31316803e-50
4.908821554e-50
1.810456886e-49
6.586938792e-49
2.363794841e-48
8.366120699e-48
2.920101703e-47
1.005106852e-46
3.411583521e-46
1.142007632e-45
3.770349745e-45
1.227662604e-44
3.94283042e-44
1.249176785e-43
3.904712728e-43
1.204406771e-42
3.666510946e-42
1.101823503e-41
3.269193177e-41
9.579318742e-41
2.772649395e-40
7.929129565e-40
2.240953448e-39
6.260754658e-39
1.729568528e-38
4.7258231e-38
1.277452618e-37
3.417118759e-37
9.047786441e-37
2.371967177e-36
6.158486954e-36
1.583984478e-35
4.036910394e-35
1.019706348e-34
2.553476763e-34
6.340426404e-34
1.561455123e-33
3.814653601e-33
9.246562404e-33
2.22426916e-32
5.31073414e-32
1.258778782e-31
2.962362158e-31
6.922811692e-31
1.606718462e-30
3.7039311e-30
8.482047704e-30
1.929737459e-29
4.362112968e-29
9.797943999e-29
2.186994099e-28
4.851404257e-28
1.069609108e-27
2.343956084e-27
5.105841851e-27
1.105617088e-26
2.380048208e-26
5.093699722e-26
1.083851269e-25
2.293065879e-25
4.823868453e-25
1.009085966e-24
2.099117607e-24
4.342542128e-24
8.934570776e-24
1.82831378e-23
3.721360761e-23
7.534519141e-23
1.517550923e-22
3.040882319e-22
6.062658334e-22
1.202755912e-21
2.374613154e-21
4.666250123e-21
9.127922679e-21
1.777823078e-20
3.448411052e-20
6.663312597e-20
1.283094328e-19
2.46333574e-19
4.717726756e-19
9.01983415e-19
1.723050569e-18
3.292177061e-18
6.298757674e-18
1.208206176e-17
2.326023154e-17
4.497978132e-17
8.738438871e-17
1.704574767e-16
3.333603243e-16
6.521511165e-16
1.272747327e-15
2.472026877e-15
4.773903409e-15
9.191152246e-15
5.548742438e-66
4.18841799e-65
2.387005405e-64
1.215878082e-63
5.874980091e-63
2.762259486e-62
1.277880279e-61
5.842727053e-61
2.644818037e-60
1.185874106e-59
5.267427987e-59
2.317484191e-58
1.009793947e-57
4.356503389e-57
1.860525139e-56
7.863196744e-56
3.287712023e-55
1.359469243e-54
5.558320441e-54
2.246198565e-53
8.968257172e-53
3.536777753e-52
1.377315479e-51
5.295027714e-51
2.009134343e-50
7.522451532e-50
2.778689014e-49
1.012468967e-48
3.638582546e-48
1.289584455e-47
4.507200535e-47
1.553407178e-46
5.279293533e-46
1.769373602e-45
5.848535849e-45
1.906539641e-44
6.130059879e-44
1.944288218e-43
6.084122524e-43
1.878657947e-42
5.725169206e-42
1.722284701e-41
5.115516502e-41
1.500512218e-40
4.347678123e-40
1.244653174e-39
3.521441003e-39
9.848820994e-39
2.723821724e-38
7.450842663e-38
2.016364965e-37
5.39998069e-37
1.431510609e-36
3.757456513e-36
9.768005353e-36
2.515610004e-35
6.419722964e-35
1.623796122e-34
4.071851308e-34
1.012503128e-33
2.497119511e-33
6.109567369e-33
1.483181696e-32
3.573326535e-32
8.545212112e-32
2.028670675e-31
4.781941829e-31
1.119339906e-30
2.602202299e-30
6.008880534e-30
1.378375349e-29
3.141282468e-29
7.112997887e-29
1.600449496e-28
3.578568924e-28
7.952191318e-28
1.756322338e-27
3.855582591e-27
8.413380979e-27
1.825036532e-26
3.935652061e-26
8.43778682e-26
1.798577155e-25
3.811885502e-25
8.03308612e-25
1.683365974e-24
3.50792633e-24
7.269778559e-24
1.498355136e-23
3.071543446e-23
6.262879999e-23
1.270271457e-22
2.563044687e-22
5.145041727e-22
1.027624989e-21
2.042392393e-21
4.039752552e-21
7.953226279e-21
1.558753639e-20
3.041908444e-20
5.912298554e-20
1.144836246e-19
2.209395257e-19
4.25167523e-19
8.16332324e-19
1.565055046e-18
2.99881629e-18
5.749266014e-18
1.104200179e-17
2.127235928e-17
4.115296874e-17
8.001020665e-17
1.56345641e-16
3.068306711e-16
6.036822342e-16
1.18766021e-15
2.329199318e-15
4.541034887e-15
8.789789953e-15
1.693205553e-14
1.094019917e-65
8.205345433e-65
4.656177758e-64
2.367748666e-63
1.144654687e-62
5.392238791e-62
2.501327138e-61
1.147158525e-60
5.209498153e-60
2.343393115e-59
1.044268787e-58
4.609182627e-58
2.014737424e-57
8.719226599e-57
3.735130427e-56
1.583349401e-55
6.639761321e-55
2.753480756e-54
1.128963557e-53
4.574719244e-53
1.831339795e-52
7.24064789e-52
2.826678565e-51
1.089301039e-50
4.142759168e-50
1.55455274e-49
5.754628598e-49
2.101150704e-48
7.566144055e-48
2.686760496e-47
9.407936877e-47
3.248283889e-46
1.105862397e-45
3.712611987e-45
1.229191395e-44
4.013389238e-44
1.292430557e-43
4.105506025e-43
1.286638036e-42
3.978776118e-42
1.214301985e-41
3.658266792e-41
1.088152441e-40
3.196461927e-40
9.275111341e-40
2.659168222e-39
7.534587213e-39
2.110435749e-38
5.845687645e-38
1.601523824e-37
4.340921618e-37
1.164408924e-36
3.09189746e-36
8.129412091e-36
2.117014771e-35
5.461762563e-35
1.396356497e-34
3.538516182e-34
8.890175277e-34
2.214941655e-33
5.473574786e-33
1.341917125e-32
3.264450667e-32
7.881433513e-32
1.888803522e-31
4.493871264e-31
1.061624995e-30
2.490566161e-30
5.803054805e-30
1.343067219e-29
3.087934451e-29
7.053596554e-29
1.600902491e-28
3.610498824e-28
8.091911431e-28
1.802385224e-27
3.990118731e-27
8.779976975e-27
1.920419714e-26
4.175604877e-26
9.025809795e-26
1.939628832e-25
4.144178016e-25
8.803733158e-25
1.859625597e-24
3.906034774e-24
8.158701288e-24
1.69474178e-23
3.501128385e-23
7.193835147e-23
1.470241572e-22
2.988979929e-22
6.045003363e-22
1.216316517e-21
2.435087769e-21
4.851192276e-21
9.618403555e-21
1.898207111e-20
3.729468633e-20
7.296388332e-20
1.421806546e-19
2.760514705e-19
5.342380851e-19
1.031112477e-18
1.986039593e-18
3.820719704e-18
7.348728452e-18
1.414867322e-17
2.730393576e-17
5.288595689e-17
1.029346745e-16
2.014758427e-16
3.965500571e-16
7.84075734e-16
1.554028234e-15
3.078151514e-15
6.071459709e-15
1.188712511e-14
2.306181409e-14
4.442284033e-14
2.42948279e-65
1.808710203e-64
1.021489635e-63
5.185232111e-63
2.50820017e-62
1.183981639e-61
5.507686718e-61
2.533891393e-60
1.154473853e-59
5.210349606e-59
2.329514547e-58
1.031555899e-57
4.523621768e-57
1.963895668e-56
8.439047897e-56
3.588312023e-55
1.509256198e-54
6.277143384e-54
2.581059685e-53
1.048751112e-52
4.209512701e-52
1.668626179e-51
6.530412203e-51
2.522651431e-50
9.616298051e-50
3.616566094e-49
1.341672427e-48
4.908978383e-48
1.771257306e-47
6.302003125e-47
2.210841882e-46
7.647212714e-46
2.608025202e-45
8.770633574e-45
2.908631831e-44
9.512157904e-44
3.068016784e-43
9.760829228e-43
3.063620843e-42
9.488072568e-42
2.90000425e-41
8.749567086e-41
2.606383534e-40
7.667535333e-40
2.228155325e-39
6.397595843e-39
1.815441285e-38
5.092930988e-38
1.412863354e-37
3.876830289e-37
1.052498807e-36
2.827860654e-36
7.521551524e-36
1.981021368e-35
5.167970429e-35
1.335715512e-34
3.421225224e-34
8.686203008e-34
2.186561093e-33
5.458518434e-33
1.351645787e-32
3.32058321e-32
8.094914971e-32
1.958560513e-31
4.703944928e-31
1.121638583e-30
2.655659871e-30
6.24423659e-30
1.458235247e-29
3.3827256e-29
7.795472082e-29
1.784827847e-28
4.060381933e-28
9.17887306e-28
2.062036334e-27
4.603814911e-27
1.021603318e-26
2.253287204e-26
4.940216466e-26
1.076701457e-25
2.332851156e-25
5.025078659e-25
1.076178096e-24
2.291564383e-24
4.851857103e-24
1.021489059e-23
2.138610491e-23
4.452719289e-23
9.220177096e-23
1.898890049e-22
3.889871573e-22
7.926409259e-22
1.606783801e-21
3.240532006e-21
6.502730192e-21
1.298510006e-20
2.580606529e-20
5.104974177e-20
1.005404229e-19
1.971801784e-19
3.851956551e-19
7.498075271e-19
1.454983665e-18
2.816141441e-18
5.440558821e-18
1.050072392e-17
2.026978504e-17
3.918347902e-17
7.596102285e-17
1.478948707e-16
2.895382197e-16
5.703918177e-16
1.130472113e-15
2.251251942e-15
4.493077956e-15
8.955978022e-15
1.775622203e-14
3.488737574e-14
6.778354728e-14
1.304399929e-13
5.689348583e-65
4.200707497e-64
2.360359931e-63
1.19600016e-62
5.789127348e-62
2.738495063e-61
1.27752293e-60
5.895880134e-60
2.694976621e-59
1.220264576e-58
5.473493988e-58
2.431575496e-57
1.069694584e-56
4.658479177e-56
2.007914665e-55
8.563470757e-55
3.612402601e-54
1.506763378e-53
6.213029639e-53
2.531308516e-52
1.018684171e-51
4.048245142e-51
1.588227461e-50
6.149742473e-50
2.349630439e-49
8.85614175e-49
3.292436446e-48
1.207124192e-47
4.364167529e-47
1.555704989e-46
5.467722331e-46
1.894631097e-45
6.472659531e-45
2.180382616e-44
7.242660893e-44
2.372342171e-43
7.663548594e-43
2.441857412e-42
7.675731093e-42
2.380705976e-41
7.287248981e-41
2.201836975e-40
6.568545029e-40
1.935172343e-39
5.631775792e-39
1.619415069e-38
4.602286788e-38
1.293073508e-37
3.592725049e-37
9.873740864e-37
2.684866914e-36
7.225562108e-36
1.925088624e-35
5.079021471e-35
1.327324309e-34
3.436814497e-34
8.819176594e-34
2.243363961e-33
5.658139725e-33
1.415296944e-32
3.511674648e-32
8.644930096e-32
2.111889911e-31
5.120637255e-31
1.232510068e-30
2.945337821e-30
6.989083395e-30
1.647036314e-29
3.855109018e-29
8.963322739e-29
2.070353991e-28
4.75120768e-28
1.083389278e-27
2.454824331e-27
5.527684937e-27
1.237036169e-26
2.75147324e-26
6.083004994e-26
1.336798362e-25
2.920334785e-25
6.342206282e-25
1.369337042e-24
2.939433782e-24
6.273664902e-24
1.33138773e-23
2.809539107e-23
5.895700429e-23
1.230350894e-22
2.553528027e-22
5.271045918e-22
1.082246133e-21
2.210342635e-21
4.49088438e-21
9.077822298e-21
1.825796756e-20
3.654221799e-20
7.278926631e-20
1.443245797e-19
2.849027901e-19
5.600680694e-19
1.096726261e-18
2.140090045e-18
4.163345427e-18
8.079669736e-18
1.565345695e-17
3.030507331e-17
5.869620976e-17
1.138959015e-16
2.217489462e-16
4.338636886e-16
8.541126805e-16
1.693013016e-15
3.377687445e-15
6.772237912e-15
1.360469916e-14
2.72759904e-14
5.432429248e-14
1.070387223e-13
2.081022618e-13
3.996857176e-13
1.36701101e-64
1.000104528e-63
5.589288969e-63
2.82702491e-62
1.36942782e-61
6.492102091e-61
3.037288577e-60
1.406127881e-59
6.448087944e-59
2.929088624e-58
1.31807403e-57
5.874122598e-57
2.592255327e-56
1.132397748e-55
4.895600853e-55
2.094134585e-54
8.859518286e-54
3.705902407e-53
1.532360176e-52
6.259653588e-52
2.525599903e-51
1.006183674e-50
3.957066142e-50
1.535788579e-49
5.881023195e-49
2.221477457e-48
8.276097618e-48
3.040456121e-47
1.101377479e-46
3.93351036e-46
1.384998154e-45
4.807619173e-45
1.645238699e-44
5.551406576e-44
1.847006753e-43
6.059398525e-43
1.96042332e-42
6.255992178e-42
1.969436338e-41
6.117397744e-41
1.8752453e-40
5.67427156e-40
1.695210834e-39
5.001554284e-39
1.457690515e-38
4.197773224e-38
1.19476805e-37
3.361999691e-37
9.355527949e-37
2.575186964e-36
7.013712687e-36
1.890652068e-35
5.045717344e-35
1.333529443e-34
3.491151436e-34
9.055988667e-34
2.328172493e-33
5.933532062e-33
1.499451586e-32
3.758112981e-32
9.343673169e-32
2.304957031e-31
5.642691499e-31
1.371099735e-30
3.307331097e-30
7.920942501e-30
1.8837697e-29
4.449247954e-29
1.043769691e-28
2.432367093e-28
5.631227143e-28
1.295286821e-27
2.960424752e-27
6.723579401e-27
1.517526136e-26
3.403999022e-26
7.589043566e-26
1.681723315e-25
3.704386722e-25
8.111401705e-25
1.765691369e-24
3.821148108e-24
8.221554261e-24
1.758797083e-23
3.74110975e-23
7.91279055e-23
1.664277912e-22
3.481067277e-22
7.241260803e-22
1.498158165e-21
3.082985334e-21
6.310836303e-21
1.285105004e-20
2.603548259e-20
5.248216942e-20
1.05275785e-19
2.101720371e-19
4.176603029e-19
8.263390736e-19
1.628125426e-18
3.195524073e-18
6.25016285e-18
1.218836763e-17
2.371286026e-17
4.606284946e-17
8.943295041e-17
1.737639392e-16
3.383729295e-16
6.614568237e-16
1.30018165e-15
2.573073614e-15
5.130357179e-15
1.030014583e-14
2.078521495e-14
4.201208649e-14
8.468043641e-14
1.69326116e-13
3.34350588e-13
6.499177676e-13
1.244598454e-12
3.324775854e-64
2.407944929e-63
1.338094583e-62
6.756058973e-62
3.275495872e-61
1.556338945e-60
7.30232719e-60
3.391234582e-59
1.560109709e-58
7.109645773e-58
3.209512326e-57
1.434859659e-56
6.351758746e-56
2.783164553e-55
1.206801419e-54
5.177508596e-54
2.197064621e-53
9.216100138e-53
3.820685241e-52
1.564798101e-51
6.329653507e-51
2.527934732e-50
9.96551905e-50
3.876682917e-49
1.487816546e-48
5.63211876e-48
2.102597807e-47
7.739950502e-47
2.809144939e-46
1.005141878e-45
3.545495953e-45
1.23285541e-44
4.226144053e-44
1.428361878e-43
4.759888214e-43
1.5639889e-42
5.067768706e-42
1.61962611e-41
5.106261721e-41
1.588412914e-40
4.876246502e-40
1.477631092e-39
4.420867328e-39
1.306226066e-38
3.812528785e-38
1.099531725e-37
3.134169573e-37
8.832922063e-37
2.461757978e-36
6.786886666e-36
1.851444912e-35
4.999106758e-35
1.336409053e-34
3.538124956e-34
9.279235256e-34
2.411412292e-33
6.211007949e-33
1.585954116e-32
4.015677547e-32
1.008470828e-31
2.512439718e-31
6.210722067e-31
1.523645295e-30
3.710203323e-30
8.969121823e-30
2.152807352e-29
5.131249076e-29
1.214670371e-28
2.85602049e-28
6.670795e-28
1.547922467e-27
3.568736727e-27
8.175393505e-27
1.861075301e-26
4.210272084e-26
9.466186163e-26
2.115361527e-25
4.698547914e-25
1.037375908e-24
2.276800582e-24
4.967652104e-24
1.077544546e-23
2.323794357e-23
4.982635428e-23
1.062283606e-22
2.251973396e-22
4.747333853e-22
9.952297301e-22
2.074954909e-21
4.302611237e-21
8.874055985e-21
1.820581136e-20
3.715610825e-20
7.544346983e-20
1.524151548e-19
3.064088437e-19
6.130566836e-19
1.220953302e-18
2.420933784e-18
4.780378487e-18
9.403098815e-18
1.843255255e-17
3.602669398e-17
7.02555721e-17
1.368099352e-16
2.663263537e-16
5.189677194e-16
1.013911489e-15
1.989459211e-15
3.927517258e-15
7.811193967e-15
1.566114095e-14
3.163073352e-14
6.421863929e-14
1.305467053e-13
2.644150621e-13
5.305256904e-13
1.049102723e-12
2.037182357e-12
3.885893424e-12
8.119080606e-64
5.815550003e-63
3.212534342e-62
1.619255346e-61
7.858236588e-61
3.742542614e-60
1.761127913e-59
8.204323047e-59
3.786358119e-58
1.730987765e-57
7.838910112e-57
3.5154434e-56
1.560994087e-55
6.860544447e-55
2.984022472e-54
1.284003703e-53
5.46362289e-53
2.298099771e-52
9.552439473e-52
3.922469126e-51
1.590660345e-50
6.368310823e-50
2.516425684e-49
9.81148975e-49
3.773813537e-48
1.431612717e-47
5.355504015e-47
1.975336718e-46
7.182998351e-46
2.574890402e-45
9.098718106e-45
3.169285843e-44
1.088221893e-43
3.684083554e-43
1.229626559e-42
4.046502846e-42
1.313169125e-41
4.203062504e-41
1.327066814e-40
4.134141381e-40
1.270970914e-39
3.856931979e-39
1.155604901e-38
3.41938899e-38
9.994877894e-38
2.886775323e-37
8.24126151e-37
2.326124222e-36
6.492954253e-36
1.792892474e-35
4.898893421e-35
1.324952801e-34
3.548020684e-34
9.409730713e-34
2.472250716e-33
6.436463676e-33
1.660935198e-32
4.249276163e-32
1.078041356e-31
2.71275154e-31
6.772195659e-31
1.677566972e-30
4.12421336e-30
1.006439186e-29
2.438288365e-29
5.865395058e-29
1.401143194e-28
3.324254446e-28
7.833959726e-28
1.833953759e-27
4.265364708e-27
9.856482794e-27
2.263184172e-26
5.16394111e-26
1.170941129e-25
2.638811066e-25
5.910527689e-25
1.315870193e-24
2.912005555e-24
6.405985315e-24
1.400924843e-23
3.045783927e-23
6.583532139e-23
1.41486427e-22
3.023342489e-22
6.423887552e-22
1.357277579e-21
2.851823658e-21
5.959150911e-21
1.238454055e-20
2.559984806e-20
5.263658109e-20
1.076626051e-19
2.190823728e-19
4.435665129e-19
8.936553251e-19
1.791845932e-18
3.576214547e-18
7.106007371e-18
1.40610708e-17
2.771648904e-17
5.444603218e-17
1.06642077e-16
2.084157075e-16
4.06773358e-16
7.937803473e-16
1.55088077e-15
3.039036663e-15
5.983599393e-15
1.185984494e-14
2.369604537e-14
4.775668034e-14
9.699444905e-14
1.980471528e-13
4.047365069e-13
8.233695363e-13
1.65670595e-12
3.278622332e-12
6.354583932e-12
1.206107004e-11
1.979384751e-63
1.400861843e-62
7.690837537e-62
3.870295304e-61
1.880339654e-60
8.976859856e-60
4.236655022e-59
1.979817106e-58
9.165873866e-58
4.203510556e-57
1.909543704e-56
8.590004915e-56
3.825924598e-55
1.686532721e-54
7.35746315e-54
3.174965179e-53
1.354742627e-52
5.713811034e-52
2.381338934e-51
9.803549242e-51
3.985510761e-50
1.599477298e-49
6.335055732e-49
2.475591912e-48
9.542643627e-48
3.627645553e-47
1.359811511e-46
5.025359396e-46
1.830835807e-45
6.574943076e-45
2.327426523e-44
8.120714834e-44
2.792966175e-43
9.470939536e-43
3.16600958e-42
1.043474498e-41
3.391366197e-41
1.087081131e-40
3.437343472e-40
1.072367393e-39
3.301554048e-39
1.003339175e-38
3.010499524e-38
8.920804798e-38
2.611356289e-37
7.553404993e-37
2.159650303e-36
6.104928404e-36
1.706721181e-35
4.720229591e-35
1.291850171e-34
3.499751519e-34
9.387797214e-34
2.494101951e-33
6.56459682e-33
1.712224301e-32
4.426729457e-32
1.134700028e-31
2.884401237e-31
7.272805494e-31
1.819322614e-30
4.516116394e-30
1.112618852e-29
2.72098138e-29
6.606449696e-29
1.592709438e-28
3.813185418e-28
9.067224643e-28
2.141625368e-27
5.025030778e-27
1.171385045e-26
2.713079616e-26
6.24396476e-26
1.427985451e-25
3.245492774e-25
7.330903991e-25
1.645807031e-24
3.672553987e-24
8.146077118e-24
1.796145224e-23
3.937015703e-23
8.579174399e-23
1.858645228e-22
4.003503912e-22
8.574273707e-22
1.825949574e-21
3.866664222e-21
8.142601021e-21
1.705269363e-20
3.551825278e-20
7.358116021e-20
1.516241484e-19
3.108065461e-19
6.33825337e-19
1.286024795e-18
2.59644847e-18
5.216980882e-18
1.043374493e-17
2.077443627e-17
4.119059607e-17
8.135505681e-17
1.601300799e-16
3.142644351e-16
6.154132156e-16
1.203606149e-15
2.35384626e-15
4.609841656e-15
9.057374484e-15
1.788818223e-14
3.558352623e-14
7.139498417e-14
1.445764101e-13
2.951574153e-13
6.058410924e-13
1.244130088e-12
2.540840693e-12
5.12400335e-12
1.014122838e-11
1.960159386e-11
3.697935897e-11
4.796005669e-63
3.350422546e-62
1.827777679e-61
9.184452955e-61
4.467731678e-60
2.138211938e-59
1.012109158e-58
4.744286806e-58
2.203307354e-57
1.013592683e-56
4.618699138e-56
2.084040237e-55
9.310083023e-55
4.116182763e-54
1.800893014e-53
7.793397135e-53
3.334586178e-52
1.410191598e-51
5.892623749e-51
2.432048847e-50
9.911516448e-50
3.987184737e-49
1.582838092e-48
6.199102185e-48
2.394688662e-47
9.122276399e-47
3.42628418e-46
1.268664107e-45
4.630565471e-45
1.665923956e-44
5.907338678e-44
2.064613851e-43
7.113062823e-43
2.415775329e-42
8.087920307e-42
2.669698733e-41
8.68961771e-41
2.789484663e-40
8.833105757e-40
2.759670493e-39
8.508482729e-39
2.58940865e-38
7.780570765e-38
2.308873699e-37
6.768513867e-37
1.960762203e-36
5.614484227e-36
1.589505315e-35
4.450580007e-35
1.232838178e-34
3.379564623e-34
9.170837415e-34
2.464205396e-33
6.558244737e-33
1.729262052e-32
4.51868385e-32
1.170447366e-31
3.0059812e-31
7.656234816e-31
1.934341445e-30
4.848735761e-30
1.206114233e-29
2.977753012e-29
7.297912781e-29
1.775759193e-28
4.290482178e-28
1.029486148e-27
2.453455107e-27
5.807982115e-27
1.365853767e-26
3.191195627e-26
7.408121289e-26
1.708835802e-25
3.917055083e-25
8.92305439e-25
2.020168389e-24
4.545749282e-24
1.016693895e-23
2.260291928e-23
4.995158365e-23
1.097398083e-22
2.396784193e-22
5.204310711e-22
1.123535758e-21
2.41168344e-21
5.147355408e-21
1.092446131e-20
2.30563361e-20
4.839256062e-20
1.010159587e-19
2.097255976e-19
4.331042213e-19
8.897033143e-19
1.818219529e-18
3.696895641e-18
7.479399469e-18
1.505886066e-17
3.01775609e-17
6.020440526e-17
1.19601146e-16
2.366700568e-16
4.666999797e-16
9.176030702e-16
1.800186837e-15
3.52725212e-15
6.911360962e-15
1.356342063e-14
2.6711064e-14
5.289563064e-14
1.055551099e-13
2.125784019e-13
4.323285178e-13
8.867626752e-13
1.828906455e-12
3.772213546e-12
7.730035155e-12
1.561520649e-11
3.088638633e-11
5.948246612e-11
1.114147102e-10
1.150468737e-62
7.92529054e-62
4.295665883e-61
2.155711456e-60
1.050089667e-59
5.038375734e-59
2.391904958e-58
1.124648811e-57
5.239125594e-57
2.417568767e-56
1.104979525e-55
5.000853544e-55
2.240662073e-54
9.935291467e-54
4.359261951e-53
1.891735876e-52
8.116242206e-52
3.441439935e-51
1.441743247e-50
5.965340574e-50
2.436984324e-49
9.826396146e-49
3.909721185e-48
1.534567854e-47
5.940484071e-47
2.267563351e-46
8.5335826e-46
3.165738194e-45
1.157586414e-44
4.171969776e-44
1.481903903e-43
5.187826274e-43
1.790277695e-42
6.089652983e-42
2.041893036e-41
6.750053624e-41
2.200309113e-40
7.073524575e-40
2.243092208e-39
7.017912463e-39
2.166792832e-38
6.603589649e-38
1.987039945e-37
5.904909751e-37
1.733549662e-36
5.029368386e-36
1.442250065e-35
4.089300757e-35
1.146767686e-34
3.181651683e-34
8.735984147e-34
2.374555031e-33
6.391321313e-33
1.703965127e-32
4.501034346e-32
1.178313948e-31
3.05785849e-31
7.868403556e-31
2.008021188e-30
5.083418019e-30
1.276845675e-29
3.182732149e-29
7.874340413e-29
1.933974454e-28
4.716009882e-28
1.14194617e-27
2.746109566e-27
6.559049813e-27
1.556180447e-26
3.667887506e-26
8.589077223e-26
1.998414556e-25
4.620239307e-25
1.061480024e-24
2.423563066e-24
5.499419833e-24
1.240288152e-23
2.780314493e-23
6.195168385e-23
1.372209228e-22
3.021447637e-22
6.613885123e-22
1.439343864e-21
3.114285273e-21
6.699743601e-21
1.433125844e-20
3.048302122e-20
6.447644818e-20
1.356240465e-19
2.837194331e-19
5.903158768e-19
1.221662142e-18
2.514896646e-18
5.150229876e-18
1.04932587e-17
2.127249523e-17
4.291469361e-17
8.61671378e-17
1.722300061e-16
3.427805168e-16
6.795168839e-16
1.342289335e-15
2.643575777e-15
5.194753164e-15
1.019499792e-14
2.000916124e-14
3.933598108e-14
7.76157409e-14
1.540461858e-13
3.082286298e-13
6.227381104e-13
1.271246734e-12
2.618355474e-12
5.423351635e-12
1.122934306e-11
2.307787231e-11
4.667177693e-11
9.219787717e-11
1.767576678e-10
3.283385987e-10
2.722524607e-62
1.847524861e-61
9.948733246e-61
4.987033683e-60
2.432987422e-59
1.170373156e-58
5.572475821e-58
2.628055254e-57
1.227985223e-56
5.683598921e-56
2.605527253e-55
1.182679836e-54
5.314493017e-54
2.363237213e-53
1.039816215e-52
4.524713168e-52
1.946451347e-51
8.274791557e-51
3.475373059e-50
1.441493197e-49
5.902829604e-49
2.385603504e-48
9.512899762e-48
3.741827499e-47
1.451503392e-46
5.551657527e-46
2.093293519e-45
7.779968206e-45
2.849915499e-44
1.028900696e-43
3.660850953e-43
1.283665797e-42
4.437018044e-42
1.511564397e-41
5.075959989e-41
1.680475027e-40
5.485770596e-40
1.766079276e-39
5.608352715e-39
1.757137662e-38
5.432791023e-38
1.65803527e-37
4.996087929e-37
1.486787137e-36
4.371333178e-36
1.270036836e-35
3.647369668e-35
1.03571821e-34
2.908953585e-34
8.08348709e-34
2.223103163e-33
6.052703566e-33
1.631907663e-32
4.35835105e-32
1.153318912e-31
3.02477192e-31
7.864338038e-31
2.027508676e-30
5.184336504e-30
1.315062278e-29
3.309867082e-29
8.267381237e-29
2.04970246e-28
5.044852313e-28
1.232833845e-27
2.991694845e-27
7.210074379e-27
1.725918123e-26
4.10395459e-26
9.694529965e-26
2.275250306e-25
5.305703417e-25
1.229414867e-24
2.830893339e-24
6.47804639e-24
1.473276746e-23
3.330173913e-23
7.481931245e-23
1.670884639e-22
3.709238328e-22
8.185547814e-22
1.795785953e-21
3.916737301e-21
8.493304059e-21
1.831179773e-20
3.925612213e-20
8.368095853e-20
1.773822061e-19
3.739211342e-19
7.838987587e-19
1.634463314e-18
3.38963193e-18
6.992327692e-18
1.434881996e-17
2.929366322e-17
5.950300528e-17
1.202720117e-16
2.419447803e-16
4.844783834e-16
9.65926872e-16
1.918048374e-15
3.794918666e-15
7.485318021e-15
1.473031809e-14
2.894921767e-14
5.689427312e-14
1.120039433e-13
2.213342913e-13
4.400578532e-13
8.823765936e-13
1.787393119e-12
3.660218056e-12
7.565723678e-12
1.572892883e-11
3.267693883e-11
6.731654775e-11
1.362199045e-10
2.685814251e-10
5.121431574e-10
9.423896251e-10
6.334021148e-62
4.229861556e-61
2.262893229e-60
1.133311573e-59
5.538167127e-59
2.671065366e-58
1.275460508e-57
6.033179362e-57
2.827463834e-56
1.312541326e-55
6.034710683e-55
2.7471658e-54
1.237988292e-53
5.520499918e-53
2.435677545e-52
1.062714994e-51
4.583563049e-51
1.953537577e-50
8.225073573e-50
3.419736049e-49
1.403617034e-48
5.685415543e-48
2.272059489e-47
8.955742355e-47
3.481092104e-46
1.334039686e-45
5.039569956e-45
1.876409259e-44
6.885585307e-44
2.490131783e-43
8.874582033e-43
3.11708335e-42
1.079051536e-41
3.681485012e-41
1.238095724e-40
4.104846163e-40
1.341902983e-39
4.326175439e-39
1.375731686e-38
4.31623468e-38
1.336354863e-37
4.08406873e-37
1.232345706e-36
3.672598586e-36
1.081314592e-35
3.146102427e-35
9.048379604e-35
2.573247712e-34
7.238368726e-34
2.01457093e-33
5.549326517e-33
1.513368416e-32
4.087180262e-32
1.093457947e-31
2.8986768e-31
7.616092759e-31
1.983852218e-30
5.124307408e-30
1.312828611e-29
3.3367216e-29
8.415081445e-29
2.106219585e-28
5.232716934e-28
1.290616786e-27
3.160649097e-27
7.686366258e-27
1.856450943e-26
4.453593269e-26
1.061316836e-25
2.512614277e-25
5.910009767e-25
1.381224865e-24
3.207627093e-24
7.402420238e-24
1.697693282e-23
3.869581086e-23
8.766171209e-23
1.973870435e-22
4.417852474e-22
9.828940616e-22
2.173822777e-21
4.779498275e-21
1.044720741e-20
2.270371189e-20
4.905594546e-20
1.053911584e-19
2.251410489e-19
4.782597833e-19
1.01030695e-18
2.122490128e-18
4.434706095e-18
9.215870467e-18
1.904970848e-17
3.916986294e-17
8.012409752e-17
1.630660292e-16
3.302195685e-16
6.654921362e-16
1.334935964e-15
2.665973525e-15
5.302227404e-15
1.050618346e-14
2.07514941e-14
4.088821137e-14
8.044937391e-14
1.582761502e-13
3.119059429e-13
6.170183843e-13
1.228246655e-12
2.466514946e-12
5.006006786e-12
1.027633779e-11
2.130268693e-11
4.442455476e-11
9.255171362e-11
1.910249321e-10
3.86594205e-10
7.603418315e-10
1.440919138e-09
2.623753e-09
1.443775894e-61
9.478035729e-61
5.037854403e-60
2.521438802e-59
1.234346701e-58
5.968924616e-58
2.858377139e-57
1.356022114e-56
6.373547436e-56
2.967253156e-55
1.368170713e-54
6.245932928e-54
2.822520547e-53
1.262080954e-52
5.583326117e-52
2.442447318e-51
1.056132686e-50
4.512487616e-50
1.904504431e-49
7.936912536e-49
3.265064565e-48
1.325432546e-47
5.308053851e-47
2.09655621e-46
8.165426983e-46
3.135163374e-45
1.186538924e-44
4.425713325e-44
1.626806762e-43
5.893083369e-43
2.103641275e-42
7.400581804e-42
2.56571784e-41
8.766550488e-41
2.952483782e-40
9.802717535e-40
3.209055798e-39
1.035998627e-38
3.29899972e-38
1.03643957e-37
3.213293275e-37
9.8336068e-37
2.971308874e-36
8.867329253e-36
2.614430503e-35
7.61752633e-35
2.194018613e-34
6.248749094e-34
1.760390644e-33
4.907087073e-33
1.35385229e-32
3.698138584e-32
1.000433126e-31
2.681085435e-31
7.119856574e-31
1.874066289e-30
4.890590377e-30
1.265621139e-29
3.248701316e-29
8.273150682e-29
2.090611279e-28
5.243192993e-28
1.305295938e-27
3.22611444e-27
7.917159165e-27
1.929449664e-26
4.67006094e-26
1.122748618e-25
2.681359346e-25
6.361767611e-25
1.49963381e-24
3.512437406e-24
8.17478945e-24
1.89066908e-23
4.345602787e-23
9.926658718e-23
2.253700892e-22
5.085697865e-22
1.140739412e-21
2.543446952e-21
5.637389357e-21
1.242141513e-20
2.720949845e-20
5.925774481e-20
1.283109908e-19
2.762459551e-19
5.913723579e-19
1.258864962e-18
2.664839749e-18
5.609942814e-18
1.174529075e-17
2.445744711e-17
5.06555199e-17
1.043613773e-16
2.138864633e-16
4.361099687e-16
8.847573404e-16
1.786180235e-15
3.588980706e-15
7.178872333e-15
1.429893039e-14
2.837151073e-14
5.610734836e-14
1.106712652e-13
2.17949872e-13
4.291201321e-13
8.461807926e-13
1.674893236e-12
3.336160271e-12
6.70505315e-12
1.362462055e-11
2.801504199e-11
5.819872225e-11
1.216600857e-10
2.54029812e-10
5.250650648e-10
1.062305668e-09
2.083219598e-09
3.921426968e-09
7.061318157e-09
3.212761054e-61
2.07113693e-60
1.093927398e-59
5.472978715e-59
2.684297114e-58
1.301452798e-57
6.249838215e-57
2.973406148e-56
1.401520423e-55
6.543318132e-55
3.025470576e-54
1.384989335e-53
6.275689728e-53
2.813635512e-52
1.247978787e-51
5.473233043e-51
2.372541404e-50
1.01615765e-49
4.298789859e-49
1.79558055e-48
7.402904281e-48
3.01157914e-47
1.20855632e-46
4.783028934e-46
1.86642338e-45
7.179537993e-45
2.722031186e-44
1.017045118e-43
3.744647597e-43
1.358707393e-42
4.857798566e-42
1.711611422e-41
5.942697604e-41
2.033424304e-40
6.858032908e-40
2.280133796e-39
7.474526073e-39
2.416301135e-38
7.704683037e-38
2.42378758e-37
7.524518791e-37
2.305796789e-36
6.976541241e-36
2.084855539e-35
6.155414181e-35
1.795978227e-34
5.180197369e-34
1.47751379e-33
4.168644269e-33
1.163785276e-32
3.215885445e-32
8.798532471e-32
2.384135559e-31
6.400112836e-31
1.702552676e-30
4.489361662e-30
1.173677623e-29
3.042958232e-29
7.825694599e-29
1.996735239e-28
5.055609279e-28
1.270454966e-27
3.169183684e-27
7.848810159e-27
1.930138388e-26
4.713631998e-26
1.143285862e-25
2.754423014e-25
6.592097448e-25
1.567366399e-24
3.702582882e-24
8.690741541e-24
2.027003768e-23
4.698114699e-23
1.082151309e-22
2.477251596e-22
5.63626114e-22
1.274593e-21
2.865043225e-21
6.401601476e-21
1.421878296e-20
3.139575287e-20
6.891797577e-20
1.50406173e-19
3.263540503e-19
7.040788004e-19
1.510363789e-18
3.221730304e-18
6.833828486e-18
1.441539655e-17
3.024113117e-17
6.309584784e-17
1.309360334e-16
2.702712903e-16
5.549493394e-16
1.133586848e-15
2.303809845e-15
4.658878854e-15
9.376167408e-15
1.878303484e-14
3.746429667e-14
7.442862943e-14
1.473497703e-13
2.909064335e-13
5.732860035e-13
1.129251865e-12
2.227301216e-12
4.408913102e-12
8.78192221e-12
1.76512711e-11
3.587965576e-11
7.383359488e-11
1.5358162e-10
3.215894742e-10
6.726201535e-10
1.391721406e-09
2.814313443e-09
5.502616456e-09
1.02901735e-08
1.833379273e-08
6.952771807e-61
4.39683927e-60
2.308199386e-59
1.154677908e-58
5.674438922e-58
2.758348479e-57
1.328237358e-56
6.336715236e-56
2.995038668e-55
1.40213381e-54
6.500639137e-54
2.983797789e-53
1.35557073e-52
6.09324379e-52
2.709488768e-51
1.191225963e-50
5.17614661e-50
2.222136704e-49
9.421992883e-49
3.944204467e-48
1.629609024e-47
6.643129908e-47
2.671233683e-46
1.05921823e-45
4.140957709e-45
1.59575619e-44
6.060567881e-44
2.268213866e-43
8.365624034e-43
3.040195163e-42
1.088614679e-41
3.841045209e-41
1.335487856e-40
4.576054719e-40
1.54546193e-39
5.145222359e-39
1.688899712e-38
5.466900557e-38
1.74546235e-37
5.498115125e-37
1.709077475e-36
5.244091137e-36
1.588766906e-35