/*--------------------------------*- C++ -*----------------------------------*\
  =========                 |
  \\      /  F ield         | OpenFOAM: The Open Source CFD Toolbox
   \\    /   O peration     | Website:  https://openfoam.org
    \\  /    A nd           | Version:  7
     \\/     M anipulation  |
\*---------------------------------------------------------------------------*/
FoamFile
{
    version     2.0;
    format      ascii;
    class       volScalarField;
    location    "0.361";
    object      Y_OH;
}
// * * * * * * * * * * * * * * * * * * * * * * * * * * * * * * * * * * * * * //

dimensions      [0 0 0 0 0 0 0];

internalField   nonuniform List<scalar> 
35870
(
4.392256821e-67
3.352107886e-66
1.922050789e-65
9.811871497e-65
4.737969601e-64
2.222551563e-63
1.025059696e-62
4.671763073e-62
2.108389077e-61
9.428902486e-61
4.179487623e-60
1.83623067e-59
7.995638966e-59
3.450134434e-58
1.475073936e-57
6.247247131e-57
2.620244055e-56
1.087999677e-55
4.472076733e-55
1.818927809e-54
7.317002942e-54
2.910358219e-53
1.144266003e-52
4.445667041e-52
1.706261371e-51
6.467350736e-51
2.420287159e-50
8.940557349e-50
3.259361527e-49
1.172451585e-48
4.160926651e-48
1.456684666e-47
5.030061885e-47
1.713355177e-46
5.756987787e-46
1.907834579e-45
6.236067655e-45
2.01066685e-44
6.395445737e-44
2.007024588e-43
6.21503771e-43
1.899372616e-42
5.72962765e-42
1.706374728e-41
5.018134944e-41
1.457544973e-40
4.182227637e-40
1.185762965e-39
3.323008173e-39
9.206826606e-39
2.5223942e-38
6.835365512e-38
1.832637144e-37
4.86268237e-37
1.277255017e-36
3.32198777e-36
8.55759982e-36
2.183997947e-35
5.523432321e-35
1.38461694e-34
3.44126205e-34
8.48150395e-34
2.07343032e-33
5.0287631e-33
1.210261026e-32
2.890792397e-32
6.854106785e-32
1.613437637e-31
3.771265424e-31
8.754209201e-31
2.018357914e-30
4.622563523e-30
1.051765193e-29
2.377659724e-29
5.340916435e-29
1.192213034e-28
2.64483357e-28
5.831519426e-28
1.278006635e-27
2.784074091e-27
6.029076545e-27
1.297978905e-26
2.77814398e-26
5.912006245e-26
1.25092262e-25
2.631866134e-25
5.50627099e-25
1.145605333e-24
2.370392496e-24
4.877965199e-24
9.984294549e-24
2.032757509e-23
4.116946075e-23
8.295102773e-23
1.6628963e-22
3.317041891e-22
6.584636886e-22
1.300979784e-21
2.558833343e-21
5.01116746e-21
9.774079283e-21
1.899326415e-20
3.678716972e-20
7.105734384e-20
1.369767578e-19
2.637598368e-19
5.079090422e-19
9.79434233e-19
1.894288491e-18
3.680466329e-18
7.194014601e-18
1.416071826e-17
2.807453023e-17
5.600950047e-17
1.122060731e-16
2.250356132e-16
4.502201309e-16
8.957277154e-16
1.769575569e-15
3.479839974e-15
6.552089694e-67
4.97937527e-66
2.846636443e-65
1.451366725e-64
7.010249911e-64
3.292711701e-63
1.521491872e-62
6.949350339e-62
3.14351302e-61
1.409115696e-60
6.260915669e-60
2.757206459e-59
1.20342526e-58
5.204942042e-58
2.23047173e-57
9.468121922e-57
3.980108538e-56
1.656329339e-55
6.823003651e-55
2.781000426e-54
1.121022835e-53
4.467858526e-53
1.76005862e-52
6.851062336e-52
2.634273541e-51
1.000250746e-50
3.749643574e-50
1.387401496e-49
5.065934893e-49
1.825102276e-48
6.486706698e-48
2.274149423e-47
7.863660644e-47
2.682111004e-46
9.023641873e-46
2.994100165e-45
9.798509312e-45
3.163001621e-44
1.007229539e-43
3.164451129e-43
9.8099963e-43
3.001287249e-42
9.063393011e-42
2.70210531e-41
7.954843079e-41
2.312980147e-40
6.643834225e-40
1.885695038e-39
5.290332918e-39
1.467358206e-38
4.024577971e-38
1.091842496e-37
2.930734499e-37
7.785552433e-37
2.047469108e-36
5.331844066e-36
1.375261204e-35
3.514422112e-35
8.900087201e-35
2.234156791e-34
5.560525337e-34
1.372461573e-33
3.360168279e-33
8.161908236e-33
1.96735195e-32
4.706579977e-32
1.117730932e-31
2.635408831e-31
6.170253098e-31
1.434704865e-30
3.31346452e-30
7.60174427e-30
1.732615292e-29
3.923664297e-29
8.829205661e-29
1.974365306e-28
4.387762249e-28
9.691703422e-28
2.127782419e-27
4.643573024e-27
1.007397225e-26
2.172684491e-26
4.658682832e-26
9.931679663e-26
2.105220751e-25
4.437213314e-25
9.300010644e-25
1.938386967e-24
4.017962379e-24
8.283339461e-24
1.698505307e-23
3.464337959e-23
7.02907804e-23
1.418855392e-22
2.849580037e-22
5.694743963e-22
1.132591413e-21
2.242044312e-21
4.418407901e-21
8.670348005e-21
1.694640609e-20
3.300241391e-20
6.406764883e-20
1.240557846e-19
2.397786306e-19
4.63070388e-19
8.946456804e-19
1.731655714e-18
3.363467623e-18
6.567070491e-18
1.29078673e-17
2.556572722e-17
5.102506598e-17
1.025020027e-16
2.067409008e-16
4.172210051e-16
8.391154426e-16
1.675975078e-15
3.318304586e-15
6.526694626e-15
1.304611898e-66
9.850110229e-66
5.606081917e-65
2.853068881e-64
1.378642514e-63
6.487764231e-63
3.006043905e-62
1.377278371e-61
6.250583425e-61
2.811269699e-60
1.253292979e-59
5.53779144e-59
2.425109828e-58
1.052338045e-57
4.524230576e-57
1.926660656e-56
8.124714942e-56
3.391657934e-55
1.401420878e-54
5.728955845e-54
2.315987175e-53
9.256216666e-53
3.656266773e-52
1.426944649e-51
5.500604462e-51
2.093726106e-50
7.867280821e-50
2.917584076e-49
1.067657725e-48
3.854574545e-48
1.372768182e-47
4.822179214e-47
1.670592909e-46
5.708434664e-46
1.923920523e-45
6.394569239e-45
2.096154377e-44
6.777387463e-44
2.161596875e-43
6.801641718e-43
2.111744122e-42
6.470343758e-42
1.956818878e-41
5.84247829e-41
1.722497318e-40
5.015680199e-40
1.442807232e-39
4.101035242e-39
1.152296996e-38
3.200852414e-38
8.792427302e-38
2.389026786e-37
6.42280704e-37
1.708996278e-36
4.501832848e-36
1.174323709e-35
3.034260559e-35
7.767807338e-35
1.970768437e-34
4.956463866e-34
1.23597921e-33
3.056697206e-33
7.498763437e-33
1.825222845e-32
4.408785963e-32
1.056992012e-31
2.515639495e-31
5.944542526e-31
1.394909055e-30
3.250796486e-30
7.52496155e-30
1.730370311e-29
3.953115815e-29
8.973199181e-29
2.023953082e-28
4.536634881e-28
1.010601726e-27
2.237534983e-27
4.92414899e-27
1.077187626e-26
2.342475464e-26
5.064140103e-26
1.088443862e-25
2.325938515e-25
4.942019357e-25
1.044111716e-24
2.19355557e-24
4.58282293e-24
9.521931687e-24
1.967663922e-23
4.044258744e-23
8.268371176e-23
1.681620206e-22
3.402523435e-22
6.849871744e-22
1.372213923e-21
2.735754141e-21
5.428978647e-21
1.072576808e-20
2.11014809e-20
4.135243063e-20
8.075349734e-20
1.572195322e-19
3.053643902e-19
5.921797328e-19
1.14782909e-18
2.226674346e-18
4.329973254e-18
8.455172497e-18
1.660964745e-17
3.287407466e-17
6.561499152e-17
1.320433427e-16
2.675156401e-16
5.440146172e-16
1.106054875e-15
2.238103128e-15
4.489448327e-15
8.907179083e-15
1.75100039e-14
2.926282887e-66
2.192842884e-65
1.241903616e-64
6.308204822e-64
3.049726457e-63
1.438069113e-62
6.682085891e-62
3.071345377e-61
1.398576809e-60
6.311685697e-60
2.82343692e-59
1.251804099e-58
5.500420576e-58
2.394770473e-57
1.032943782e-56
4.413148983e-56
1.86697656e-55
7.818282506e-55
3.240496732e-54
1.328643643e-53
5.386737367e-53
2.158959792e-52
8.551329207e-52
3.346174043e-51
1.29317896e-50
4.934412223e-50
1.858529116e-49
6.90811838e-49
2.53352046e-48
9.16621161e-48
3.271130262e-47
1.151325133e-46
3.996220047e-46
1.368026641e-45
4.618842084e-45
1.537801654e-44
5.049335715e-44
1.635222716e-43
5.223683576e-43
1.646226081e-42
5.118926213e-42
1.57078724e-41
4.757579785e-41
1.422568685e-40
4.200226684e-40
1.224846013e-39
3.528576962e-39
1.004508143e-38
2.82663765e-38
7.863610076e-38
2.163382675e-37
5.887468747e-37
1.585370445e-36
4.225339607e-36
1.114915467e-35
2.913338249e-35
7.540943699e-35
1.934019424e-34
4.915952667e-34
1.23872234e-33
3.095018126e-33
7.669626573e-33
1.885386933e-32
4.598700179e-32
1.113174145e-31
2.674587124e-31
6.379542305e-31
1.510878579e-30
3.553363418e-30
8.299985389e-30
1.925730228e-29
4.438561635e-29
1.016393452e-28
2.312568228e-28
5.228501415e-28
1.174745243e-27
2.623164319e-27
5.82173507e-27
1.284256686e-26
2.816114289e-26
6.138634176e-26
1.330267995e-25
2.865990377e-25
6.139039471e-25
1.3074895e-24
2.768919307e-24
5.830953204e-24
1.221095736e-23
2.543113734e-23
5.267619773e-23
1.085236384e-22
2.223960315e-22
4.533746201e-22
9.195051179e-22
1.855504386e-21
3.725911198e-21
7.446045073e-21
1.481203071e-20
2.933503568e-20
5.785656482e-20
1.136709132e-19
2.22564813e-19
4.345111661e-19
8.464195593e-19
1.646621454e-18
3.202787511e-18
6.237347035e-18
1.218310294e-17
2.391191113e-17
4.725086109e-17
9.414817544e-17
1.893198174e-16
3.840325663e-16
7.843823042e-16
1.60754301e-15
3.290931168e-15
6.695553752e-15
1.347832168e-14
2.677319383e-14
5.255093214e-14
6.920761887e-66
5.142746173e-65
2.89729857e-64
1.468813124e-63
7.105130928e-63
3.357353126e-62
1.56449112e-61
7.214007992e-61
3.295948858e-60
1.492449647e-59
6.698781789e-59
2.979945992e-58
1.313747216e-57
5.73855443e-57
2.483220068e-56
1.064341441e-55
4.516831089e-55
1.897385699e-54
7.888339085e-54
3.243747397e-53
1.318862047e-52
5.30052851e-52
2.105101285e-51
8.25874571e-51
3.199721435e-50
1.223878275e-49
4.620447148e-49
1.721272157e-48
6.326365089e-48
2.293640029e-47
8.201719211e-47
2.892300555e-46
1.005783633e-45
3.44935085e-45
1.166628245e-44
3.890732527e-44
1.279607769e-43
4.150625939e-43
1.327982186e-42
4.19150738e-42
1.305310817e-41
4.0114184e-41
1.216762282e-40
3.643574212e-40
1.077357272e-39
3.146310685e-39
9.077319955e-39
2.587994403e-38
7.293339978e-38
2.032048567e-37
5.599044904e-37
1.526131202e-36
4.116158419e-36
1.09884799e-35
2.904359209e-35
7.602393598e-35
1.97131303e-34
5.065019055e-34
1.289847745e-33
3.25638202e-33
8.152205131e-33
2.024212926e-32
4.986217627e-32
1.218749681e-31
2.956422828e-31
7.118684739e-31
1.701714878e-30
4.039192327e-30
9.521038788e-30
2.229011974e-29
5.183583639e-29
1.197524366e-28
2.748640468e-28
6.268590325e-28
1.42061353e-27
3.199402564e-27
7.161092323e-27
1.593074068e-26
3.522618919e-26
7.742731951e-26
1.691784227e-25
3.674855345e-25
7.936005258e-25
1.703929779e-24
3.6375693e-24
7.721519989e-24
1.629855484e-23
3.421164324e-23
7.141713553e-23
1.482727718e-22
3.061821443e-22
6.289116228e-22
1.285067391e-21
2.612333738e-21
5.283757307e-21
1.063461034e-20
2.130229631e-20
4.247496282e-20
8.432024472e-20
1.667012725e-19
3.283200691e-19
6.444620912e-19
1.261476154e-18
2.464142792e-18
4.808030089e-18
9.382607744e-18
1.833964613e-17
3.59728475e-17
7.094818776e-17
1.409874943e-16
2.827304551e-16
5.726153863e-16
1.170440053e-15
2.409174145e-15
4.973661528e-15
1.02467227e-14
2.094762809e-14
4.228555195e-14
8.402144868e-14
1.644982691e-13
1.679218131e-65
1.23624212e-64
6.925972469e-64
3.504374353e-63
1.696322713e-62
8.032923694e-62
3.754113319e-61
1.736589093e-60
7.96045067e-60
3.616630041e-59
1.628728603e-58
7.269428439e-58
3.215378023e-57
1.409061578e-56
6.116742276e-56
2.630073279e-55
1.119611277e-54
4.717633149e-54
1.967313488e-53
8.112904509e-53
3.307861178e-52
1.333068621e-51
5.30830215e-51
2.087891521e-50
8.109228042e-50
3.109145387e-49
1.176482578e-48
4.392518741e-48
1.617879719e-47
5.877745708e-47
2.105958803e-46
7.440711164e-46
2.592236054e-45
8.906110722e-45
3.017384209e-44
1.00798185e-43
3.320491491e-43
1.078764206e-42
3.4568287e-42
1.092737334e-41
3.408073536e-41
1.048900348e-40
3.18623049e-40
9.554990759e-40
2.829387121e-39
8.274951629e-39
2.390875645e-38
6.826756127e-38
1.926749854e-37
5.376380723e-37
1.48367929e-36
4.050444735e-36
1.094217063e-35
2.925947686e-35
7.746666414e-35
2.03127822e-34
5.276534906e-34
1.358214983e-33
3.465295596e-33
8.765398236e-33
2.198698392e-32
5.470416841e-32
1.350290609e-31
3.30737363e-31
8.040102852e-31
1.940155372e-30
4.648144307e-30
1.105748519e-29
2.612322104e-29
6.129787876e-29
1.428770585e-28
3.308441237e-28
7.611490484e-28
1.739959614e-27
3.952450255e-27
8.922431748e-27
2.00179329e-26
4.463775523e-26
9.893698427e-26
2.179783223e-25
4.774071757e-25
1.039459134e-24
2.250040091e-24
4.842379105e-24
1.036178549e-23
2.204649918e-23
4.664409235e-23
9.813622115e-23
2.053349137e-22
4.272911536e-22
8.84385672e-22
1.820740858e-21
3.728882045e-21
7.597548244e-21
1.540203203e-20
3.107035022e-20
6.237930432e-20
1.246632866e-19
2.480466194e-19
4.915240695e-19
9.703356572e-19
1.909255472e-18
3.746484139e-18
7.337438484e-18
1.435691313e-17
2.810293872e-17
5.512110879e-17
1.085482938e-16
2.150744938e-16
4.296910551e-16
8.669964032e-16
1.768013059e-15
3.640356804e-15
7.548499588e-15
1.569103581e-14
3.251535398e-14
6.675006608e-14
1.350201666e-13
2.68132515e-13
5.230698299e-13
4.12386766e-65
3.005038041e-64
1.673696265e-63
8.452327123e-63
4.09463929e-62
1.943379291e-61
9.108851814e-61
4.227074906e-60
1.944059761e-59
8.861609372e-59
4.003993532e-58
1.792963296e-57
7.956445776e-57
3.497933506e-56
1.523208954e-55
6.5702957e-55
2.806347907e-54
1.186096117e-53
4.959716521e-53
2.051044896e-52
8.385935418e-52
3.388667523e-51
1.352907589e-50
5.334807555e-50
2.077071583e-49
7.982458541e-49
3.027391507e-48
1.13278757e-47
4.18117482e-47
1.522109385e-46
5.464287605e-46
1.934254083e-45
6.750921014e-45
2.323558124e-44
7.885599533e-44
2.638593839e-43
8.706030135e-43
2.832867635e-42
9.091705842e-42
2.878318623e-41
8.990372847e-41
2.771027836e-40
8.429775266e-40
2.531614874e-39
7.507378596e-39
2.198829685e-38
6.362356259e-38
1.819417314e-37
5.142680524e-37
1.43718439e-36
3.972236191e-36
1.086139084e-35
2.938936005e-35
7.871807477e-35
2.087672674e-34
5.483727175e-34
1.427032821e-33
3.680040203e-33
9.406833574e-33
2.384042212e-32
5.991929899e-32
1.493825175e-31
3.694931067e-31
9.069349557e-31
2.209444528e-30
5.343214496e-30
1.28293409e-29
3.058808085e-29
7.242770322e-29
1.703394043e-28
3.979532309e-28
9.236334103e-28
2.129894678e-27
4.880273158e-27
1.111197234e-26
2.514375111e-26
5.654439002e-26
1.26385295e-25
2.807867728e-25
6.200891738e-25
1.361291539e-24
2.970906632e-24
6.445978933e-24
1.390502654e-23
2.982353944e-23
6.360228501e-23
1.348761039e-22
2.844262109e-22
5.964877272e-22
1.244106073e-21
2.58087073e-21
5.325493471e-21
1.093134458e-20
2.232274373e-20
4.535522157e-20
9.169946749e-20
1.845140007e-19
3.695670898e-19
7.369762317e-19
1.463635906e-18
2.895914796e-18
5.711086347e-18
1.123301884e-17
2.205363824e-17
4.326439525e-17
8.493026981e-17
1.671180934e-16
3.303203317e-16
6.573212533e-16
1.319906952e-15
2.678782108e-15
5.498449467e-15
1.140032134e-14
2.380466087e-14
4.980157634e-14
1.037495247e-13
2.137462597e-13
4.329332332e-13
8.584999437e-13
1.666959527e-12
1.016762893e-64
7.326538267e-64
4.05563943e-63
2.044356834e-62
9.912705377e-62
4.715713555e-61
2.216861624e-60
1.032049059e-59
4.762010336e-59
2.177803235e-58
9.872399631e-58
4.435212984e-57
1.974537828e-56
8.708479959e-56
3.804993416e-55
1.646479856e-54
7.052900474e-54
2.98960592e-53
1.253687419e-52
5.199142118e-52
2.131584076e-51
8.636520256e-51
3.45700937e-50
1.366584563e-49
5.333568215e-49
2.054541323e-48
7.809492739e-48
2.928487013e-47
1.083176473e-46
3.951107093e-46
1.421164032e-45
5.039982622e-45
1.762202129e-44
6.076082664e-44
2.065538245e-43
6.922755658e-43
2.28780116e-42
7.455911215e-42
2.396527848e-41
7.59848442e-41
2.376881036e-40
7.336770973e-40
2.235161457e-39
6.72227515e-39
1.996338809e-38
5.855533132e-38
1.69690785e-37
4.859663572e-37
1.375637882e-36
3.85022894e-36
1.065820136e-35
2.918936237e-35
7.911087034e-35
2.122487033e-34
5.63866413e-34
1.483721459e-33
3.868060308e-33
9.993436273e-33
2.559345852e-32
6.498940486e-32
1.636657774e-31
4.088588885e-31
1.013401071e-30
2.492686827e-30
6.08565001e-30
1.474937103e-29
3.549242114e-29
8.481170943e-29
2.012755716e-28
4.744530865e-28
1.110988655e-27
2.584538291e-27
5.97382184e-27
1.371996304e-26
3.131247631e-26
7.101920072e-26
1.600868644e-25
3.586602552e-25
7.98699547e-25
1.767989918e-24
3.890396119e-24
8.510331606e-24
1.85079609e-23
4.001758145e-23
8.602890304e-23
1.838911059e-22
3.908608939e-22
8.261372015e-22
1.736502195e-21
3.630095952e-21
7.547604063e-21
1.560916951e-20
3.211184094e-20
6.572111482e-20
1.338271061e-19
2.711667688e-19
5.468209713e-19
1.097612154e-18
2.193529113e-18
4.365699463e-18
8.656407032e-18
1.710836442e-17
3.372416842e-17
6.636112953e-17
1.30500118e-16
2.5685209e-16
5.069020686e-16
1.005343004e-15
2.008598048e-15
4.052350093e-15
8.269448877e-15
1.707849787e-14
3.564287293e-14
7.49140847e-14
1.576651933e-13
3.300376731e-13
6.819693884e-13
1.382139487e-12
2.734333704e-12
5.278766098e-12
2.50249017e-64
1.781404806e-63
9.798475476e-63
4.930562203e-62
2.393246603e-61
1.141276522e-60
5.381168382e-60
2.51315767e-59
1.163372884e-58
5.337764802e-58
2.427572978e-57
1.094115929e-56
4.886560691e-56
2.162001959e-55
9.476465561e-55
4.113211552e-54
1.767165295e-53
7.512683556e-53
3.159472936e-52
1.313924914e-51
5.401586364e-51
2.194328834e-50
8.805852747e-50
3.489623981e-49
1.365196315e-48
5.270976427e-48
2.007994479e-47
7.545900177e-47
2.796793272e-46
1.022209908e-45
3.683764853e-45
1.308791246e-44
4.584183683e-44
1.583467392e-43
5.391796616e-43
1.810001405e-42
5.991050452e-42
1.955489346e-41
6.294975579e-41
1.998868766e-40
6.26183555e-40
1.935660769e-39
5.905519227e-39
1.778639004e-38
5.289700465e-38
1.553788506e-37
4.509589654e-37
1.293360412e-36
3.666611302e-36
1.027800899e-35
2.84959227e-35
7.816555749e-35
2.121953441e-34
5.7025826e-34
1.517569429e-33
4.000278298e-33
1.04476037e-32
2.704233795e-32
6.938801697e-32
1.765402948e-31
4.45475478e-31
1.115127235e-30
2.769717979e-30
6.827159149e-30
1.670369987e-29
4.057204179e-29
9.784744852e-29
2.343373934e-28
5.573893473e-28
1.316895096e-27
3.090757666e-27
7.206784569e-27
1.669623912e-26
3.843532643e-26
8.792424018e-26
1.998859624e-25
4.516252174e-25
1.014194829e-24
2.263791925e-24
5.022804115e-24
1.107826149e-23
2.429031417e-23
5.29482092e-23
1.147483583e-22
2.472518668e-22
5.297266149e-22
1.128509453e-21
2.390687287e-21
5.036500462e-21
1.055235713e-20
2.198936548e-20
4.557739029e-20
9.397102224e-20
1.927458377e-19
3.933390159e-19
7.987169642e-19
1.614079987e-18
3.246696267e-18
6.501873038e-18
1.296706135e-17
2.576385361e-17
5.102284848e-17
1.007829042e-16
1.987328699e-16
3.91670246e-16
7.727225685e-16
1.529036359e-15
3.041879441e-15
6.099539023e-15
1.235906028e-14
2.534821214e-14
5.265030977e-14
1.105545161e-13
2.337845543e-13
4.947367341e-13
1.040079361e-12
2.154282135e-12
4.365651284e-12
8.608698738e-12
1.650516143e-11
6.12073684e-64
4.300057786e-63
2.34977769e-62
1.180492542e-61
5.736833836e-61
2.742558372e-60
1.297004059e-59
6.076567747e-59
2.821972202e-58
1.298942331e-57
5.926450172e-57
2.679589691e-56
1.200548792e-55
5.328309696e-55
2.342722687e-54
1.019923241e-53
4.39489276e-53
1.873806619e-52
7.902668649e-52
3.295541937e-51
1.358441012e-50
5.532846986e-50
2.225922806e-49
8.842458455e-49
3.467445876e-48
1.341807666e-47
5.12284311e-47
1.929182025e-46
7.164753677e-46
2.623784424e-45
9.473157888e-45
3.371762459e-44
1.183257209e-43
4.093835017e-43
1.396204523e-42
4.694459572e-42
1.556276863e-41
5.087472935e-41
1.640177218e-40
5.215795192e-40
1.636323547e-39
5.065493616e-39
1.547643393e-38
4.667865468e-38
1.390221858e-37
4.089803045e-37
1.188693506e-36
3.414141935e-36
9.693356682e-36
2.721323229e-35
7.556669801e-35
2.076135218e-34
5.645282433e-34
1.519669951e-33
4.051103094e-33
1.06974876e-32
2.798951245e-32
7.258221477e-32
1.865940835e-31
4.756681381e-31
1.202676828e-30
3.016724896e-30
7.508454922e-30
1.854694643e-29
4.547551103e-29
1.106975898e-28
2.675589841e-28
6.422161057e-28
1.531007068e-27
3.625405585e-27
8.528327366e-27
1.993146672e-26
4.628276692e-26
1.067916215e-25
2.448631399e-25
5.579642539e-25
1.263605844e-24
2.844223772e-24
6.363365675e-24
1.415151124e-23
3.128470879e-23
6.875351426e-23
1.502143148e-22
3.262882979e-22
7.046702949e-22
1.513162644e-21
3.230889947e-21
6.859906131e-21
1.448430063e-20
3.041484424e-20
6.351990059e-20
1.319472391e-19
2.726403996e-19
5.604246614e-19
1.146105503e-18
2.332189289e-18
4.722760477e-18
9.519142344e-18
1.910136341e-17
3.816991509e-17
7.598524469e-17
1.507682765e-16
2.983689922e-16
5.894740555e-16
1.164046941e-15
2.301367258e-15
4.564508285e-15
9.105218088e-15
1.831635736e-14
3.725645635e-14
7.676148817e-14
1.602725387e-13
3.384306409e-13
7.19687691e-13
1.530655287e-12
3.230114644e-12
6.702615402e-12
1.35723422e-11
2.665265304e-11
5.068909576e-11
1.481923523e-63
1.026449697e-62
5.571731534e-62
2.79510377e-61
1.360156752e-60
6.518993665e-60
3.09219006e-59
1.453267792e-58
6.770456722e-58
3.126320093e-57
1.430904342e-56
6.490045041e-56
2.916828989e-55
1.298546517e-54
5.726748015e-54
2.500612471e-53
1.080671356e-52
4.620721863e-52
1.954200592e-51
8.17147317e-51
3.377213421e-50
1.379035348e-49
5.561738229e-49
2.214684784e-48
8.704666337e-48
3.375990686e-47
1.291680975e-46
4.87432318e-46
1.813862698e-45
6.655253648e-45
2.407321597e-44
8.58359472e-44
3.017682079e-43
1.045771511e-42
3.572349566e-42
1.203024437e-41
3.994333288e-41
1.307717467e-40
4.222257885e-40
1.344642154e-39
4.224545244e-39
1.309638914e-38
4.006963857e-38
1.21024493e-37
3.609614345e-37
1.063458201e-36
3.095342466e-36
8.903354853e-36
2.531588233e-35
7.118025384e-35
1.979635457e-34
5.447558826e-34
1.483682141e-33
4.000661786e-33
1.068322918e-32
2.826035602e-32
7.407607096e-32
1.924508188e-31
4.956947051e-31
1.266095976e-30
3.207594311e-30
8.062153618e-30
2.010777706e-29
4.977369194e-29
1.223022991e-28
2.983583622e-28
7.227271551e-28
1.738605598e-27
4.154042505e-27
9.858971654e-27
2.324482349e-26
5.444949641e-26
1.267271992e-25
2.93080055e-25
6.735545484e-25
1.538355632e-24
3.49190973e-24
7.877991776e-24
1.766598092e-23
3.937773762e-23
8.72518535e-23
1.921893157e-22
4.208567743e-22
9.162409715e-22
1.983241494e-21
4.268276263e-21
9.134016375e-21
1.943683011e-20
4.113076526e-20
8.655864678e-20
1.811686821e-19
3.771496316e-19
7.809695258e-19
1.608720579e-18
3.296817207e-18
6.722432202e-18
1.364063111e-17
2.754822662e-17
5.538561587e-17
1.108838693e-16
2.211404713e-16
4.395605573e-16
8.713938081e-16
1.724520597e-15
3.411339271e-15
6.756564214e-15
1.342750218e-14
2.68462338e-14
5.415256852e-14
1.105160688e-13
2.286138375e-13
4.795457424e-13
1.017727707e-12
2.175254425e-12
4.647317426e-12
9.839681871e-12
2.044411493e-11
4.13393922e-11
8.077236197e-11
1.52199116e-10
3.539047842e-63
2.41430545e-62
1.301706729e-61
6.521972265e-61
3.178451703e-60
1.52734704e-59
7.266388248e-59
3.425665794e-58
1.600937881e-57
7.415611041e-57
3.404662202e-56
1.549004298e-55
6.983047536e-55
3.11821499e-54
1.379281272e-53
6.040322781e-53
2.6178904e-52
1.122497769e-51
4.760288417e-51
1.995819383e-50
8.269940786e-50
3.385382544e-49
1.368663156e-48
5.462823945e-48
2.152000536e-47
8.364537603e-47
3.207088214e-46
1.212684853e-45
4.52149073e-45
1.662113344e-44
6.023087207e-44
2.151339817e-43
7.576732645e-43
2.629957094e-42
8.998180336e-42
3.034931331e-41
1.009199731e-40
3.308959012e-40
1.069929618e-39
3.412249939e-39
1.073571036e-38
3.332838702e-38
1.021141652e-37
3.088487997e-37
9.225389167e-37
2.721752575e-36
7.933222585e-36
2.285203631e-35
6.507407536e-35
1.832449292e-34
5.104229452e-34
1.406811136e-33
3.837790243e-33
1.036566859e-32
2.772761705e-32
7.347710663e-32
1.929464767e-31
5.022074482e-31
1.295990631e-30
3.316636464e-30
8.41925145e-30
2.120432401e-29
5.299470201e-29
1.314555068e-28
3.236966449e-28
7.913690468e-28
1.921160394e-27
4.631785208e-27
1.109135527e-26
2.638265708e-26
6.234361745e-26
1.463668854e-25
3.414328422e-25
7.914263009e-25
1.823001755e-24
4.173127272e-24
9.494197212e-24
2.146842804e-23
4.825145867e-23
1.077976234e-22
2.393956388e-22
5.285073675e-22
1.159933594e-21
2.530940566e-21
5.490569031e-21
1.184293847e-20
2.539973265e-20
5.416862898e-20
1.148783507e-19
2.422835655e-19
5.081955604e-19
1.060196642e-18
2.199992354e-18
4.541189445e-18
9.325484012e-18
1.905345102e-17
3.873763054e-17
7.838289303e-17
1.578805022e-16
3.166470176e-16
6.325868436e-16
1.259456692e-15
2.500694475e-15
4.956442259e-15
9.819029757e-15
1.947689923e-14
3.876901081e-14
7.765422395e-14
1.569838557e-13
3.212500117e-13
6.667687345e-13
1.404200244e-12
2.993289232e-12
6.426605739e-12
1.378521003e-11
2.927055343e-11
6.086585681e-11
1.228303771e-10
2.385944087e-10
4.449255514e-10
8.307782379e-63
5.576086692e-62
2.986175038e-61
1.494647151e-60
7.295957242e-60
3.515208273e-59
1.677322231e-58
7.931765416e-58
3.718193404e-57
1.727574207e-56
7.955875468e-56
3.630637915e-55
1.641642501e-54
7.352391687e-54
3.261714212e-53
1.432506293e-52
6.225962659e-52
2.676909627e-51
1.138270317e-50
4.784826384e-50
1.987681246e-49
8.156760252e-49
3.305506079e-48
1.322380629e-47
5.220905739e-47
2.033646879e-46
7.813379316e-46
2.960282837e-45
1.105835433e-44
4.07261462e-44
1.478453382e-43
5.290697179e-43
1.866255624e-42
6.488099964e-42
2.22330868e-41
7.510269844e-41
2.50109657e-40
8.212552451e-40
2.659281832e-39
8.493050049e-39
2.675845608e-38
8.318557162e-38
2.552233897e-37
7.730526274e-37
2.312315391e-36
6.831372325e-36
1.993989579e-35
5.752074286e-35
1.640387468e-34
4.626185554e-34
1.290592493e-33
3.562699254e-33
9.734793762e-33
2.633684191e-32
7.056984828e-32
1.873349221e-31
4.928145299e-31
1.28507785e-30
3.322516725e-30
8.519250037e-30
2.166872521e-29
5.468360702e-29
1.369474026e-28
3.404109175e-28
8.400007256e-28
2.058018532e-27
5.006948732e-27
1.20977981e-26
2.903345004e-26
6.921417451e-26
1.639215707e-25
3.857078558e-25
9.017691348e-25
2.094965535e-24
4.836496195e-24
1.1096422e-23
2.530210871e-23
5.734225717e-23
1.291693019e-22
2.892211361e-22
6.437339094e-22
1.424319867e-21
3.132944139e-21
6.851109001e-21
1.489538341e-20
3.219917644e-20
6.920866033e-20
1.479174995e-19
3.143720698e-19
6.644411793e-19
1.39663113e-18
2.9197495e-18
6.071235664e-18
1.255765813e-17
2.58391115e-17
5.28966537e-17
1.077492029e-16
2.184253806e-16
4.407390753e-16
8.854530455e-16
1.77177686e-15
3.532873989e-15
7.024523297e-15
1.394097043e-14
2.765165032e-14
5.491361598e-14
1.09436512e-13
2.194904648e-13
4.444262397e-13
9.113241419e-13
1.896446659e-12
4.0067874e-12
8.572926429e-12
1.847766907e-11
3.97738547e-11
8.465896117e-11
1.761193524e-10
3.545571277e-10
6.842541385e-10
1.261611935e-09
1.910351224e-62
1.260185124e-61
6.703669111e-61
3.352773772e-60
1.639500564e-59
7.920193406e-59
3.790259546e-58
1.797730489e-57
8.452606626e-57
3.939120029e-56
1.819471411e-55
8.327753667e-55
3.776567331e-54
1.696317373e-53
7.546854564e-53
3.323770542e-52
1.448541965e-51
6.244874733e-51
2.662390974e-50
1.122014936e-49
4.672531746e-49
1.922044429e-48
7.80711179e-48
3.130278649e-47
1.238549447e-46
4.834486753e-46
1.861166913e-45
7.065038248e-45
2.644062283e-44
9.755351385e-44
3.547649431e-43
1.271755611e-42
4.49314325e-42
1.564496716e-41
5.36933493e-41
1.816452886e-40
6.058042076e-40
1.992051554e-39
6.459471006e-39
2.065848104e-38
6.517668145e-38
2.028955937e-37
6.233594273e-37
1.890720789e-36
5.663141815e-36
1.675396538e-35
4.897125472e-35
1.414693316e-34
4.040322917e-34
1.141138655e-33
3.188347218e-33
8.815225485e-33
2.412551569e-32
6.53774275e-32
1.754756655e-31
4.66626774e-31
1.229722828e-30
3.212515997e-30
8.321356928e-30
2.137757006e-29
5.448011977e-29
1.377607233e-28
3.457012107e-28
8.610801524e-28
2.129244692e-27
5.227720866e-27
1.274569126e-26
3.086258166e-26
7.422793878e-26
1.773423673e-25
4.209271313e-25
9.926272181e-25
2.325853988e-24
5.415330063e-24
1.252969838e-23
2.88107408e-23
6.583991213e-23
1.49543373e-22
3.376055589e-22
7.575927291e-22
1.689915369e-21
3.747277903e-21
8.260522259e-21
1.810333375e-20
3.944465376e-20
8.545067614e-20
1.840604185e-19
3.94223942e-19
8.396229233e-19
1.778304795e-18
3.745689225e-18
7.846671959e-18
1.634912637e-17
3.388356235e-17
6.98559996e-17
1.432780337e-16
2.923928114e-16
5.937838366e-16
1.200178936e-15
2.415069358e-15
4.8397952e-15
9.663779133e-15
1.923878786e-14
3.822361828e-14
7.588827245e-14
1.508317757e-13
3.008169195e-13
6.037959778e-13
1.223714465e-12
2.512493389e-12
5.237777625e-12
1.1092725e-11
2.380375687e-11
5.147079441e-11
1.111260076e-10
2.370303109e-10
4.932250739e-10
9.904101055e-10
1.8987046e-09
3.460836413e-09
4.28750567e-62
2.776748483e-61
1.467471644e-60
7.335825102e-60
3.593933303e-59
1.740804713e-58
8.354635773e-58
3.974254049e-57
1.874098738e-56
8.759356189e-56
4.057694928e-55
1.86258834e-54
8.47083195e-54
3.815596167e-53
1.702279034e-52
7.517574455e-52
3.285002736e-51
1.419916111e-50
6.068988623e-50
2.564007017e-49
1.070327129e-48
4.413057734e-48
1.796576585e-47
7.219145105e-47
2.862404958e-46
1.119566523e-45
4.318483402e-45
1.642369255e-44
6.157458086e-44
2.275853333e-43
8.290567356e-43
2.977001156e-42
1.053417937e-41
3.673567442e-41
1.262645354e-40
4.27776564e-40
1.428706419e-39
4.704540028e-39
1.527600005e-38
4.892150115e-38
1.545529486e-37
4.817689248e-37
1.482128595e-36
4.501513898e-36
1.350122261e-35
3.999666362e-35
1.170702646e-34
3.386707002e-34
9.68620893e-34
2.73976085e-33
7.666405691e-33
2.122893852e-32
5.819127859e-32
1.579480043e-31
4.24646276e-31
1.131158605e-30
2.986233864e-30
7.815260895e-30
2.02811418e-29
5.220057878e-29
1.332879662e-28
3.376986004e-28
8.49122611e-28
2.119299438e-27
5.251287029e-27
1.291976988e-26
3.15658383e-26
7.659592901e-26
1.846149943e-25
4.420216928e-25
1.051413917e-24
2.48480226e-24
5.834842124e-24
1.361488221e-23
3.156983884e-23
7.274928665e-23
1.666116354e-22
3.792483655e-22
8.580339045e-22
1.929596887e-21
4.313491966e-21
9.585399189e-21
2.117526114e-20
4.650537558e-20
1.015434793e-19
2.204419187e-19
4.758266718e-19
1.021257492e-18
2.179584929e-18
4.625781031e-18
9.763168113e-18
2.049339139e-17
4.27838003e-17
8.884132813e-17
1.835070319e-16
3.770769082e-16
7.708902755e-16
1.568190689e-15
3.174858071e-15
6.398400534e-15
1.284043365e-14
2.567128793e-14
5.116266945e-14
1.017414247e-13
2.021343718e-13
4.019431856e-13
8.018643491e-13
1.609779019e-12
3.263208844e-12
6.702690554e-12
1.398488031e-11
2.966017514e-11
6.377958882e-11
1.382589749e-10
2.99269772e-10
6.39587636e-10
1.331498308e-09
2.668508401e-09
5.087800846e-09
9.186726622e-09
9.355965232e-62
5.94244772e-61
3.120717089e-60
1.559717798e-59
7.656348387e-59
3.718335994e-58
1.789534196e-57
8.536997844e-57
4.037147085e-56
1.892291339e-55
8.790591293e-55
4.046437281e-54
1.845367506e-53
8.335035152e-53
3.728634802e-52
1.65098154e-51
7.233059236e-51
3.134355129e-50
1.342989738e-49
5.687456173e-49
2.379722066e-48
9.833986069e-48
4.012212723e-47
1.615628032e-46
6.419074461e-46
2.515616991e-45
9.721753049e-45
3.703988113e-44
1.391355034e-43
5.15147915e-43
1.879680073e-42
6.759421265e-42
2.395397038e-41
8.365822443e-41
2.879591178e-40
9.769676574e-40
3.267431482e-39
1.077381916e-38
3.503015519e-38
1.12332471e-37
3.553460685e-37
1.109122901e-36
3.416598066e-36
1.03905004e-35